# vtk DataFile Version 3.0
Broken Mesh Solution
ASCII
DATASET UNSTRUCTURED_GRID

POINTS 83 float
-0.5 -0.5 0.0
0.5 -0.5 0.0
0.5 0.5 0.0
-0.5 0.5 0.0
-0.3000000000005548 -0.5 0.0
-0.1000000000011096 -0.5 0.0
0.09999999999889042 -0.5 0.0
0.2999999999994452 -0.5 0.0
0.5 -0.3000000000005548 0.0
0.5 -0.1000000000011096 0.0
0.5 0.09999999999889042 0.0
0.5 0.2999999999994452 0.0
0.3000000000005548 0.5 0.0
0.1000000000011096 0.5 0.0
-0.09999999999889042 0.5 0.0
-0.2999999999994452 0.5 0.0
-0.5 0.3000000000005548 0.0
-0.5 0.1000000000011096 0.0
-0.5 -0.09999999999889042 0.0
-0.5 -0.2999999999994452 0.0
0.01186163360387493 -0.3419191899049053 0.0
-1.767198609670118e-10 0.3267949199874239 0.0
0.3372448433756492 -0.009667905631191125 0.0
-0.3372448437839337 -0.009667905633454987 0.0
-0.1991525258902135 0.3306455924698948 0.0
-0.1035600177128985 0.1705807106941144 0.0
0.1031079264484775 0.1727707431967468 0.0
-2.511080247603339e-09 -0.01961523986401409 0.0
0.1995294982153665 0.3303775560566518 0.0
-0.1819202843924578 -0.3083986709410143 0.0
0.1999218205120479 -0.3517369373688328 0.0
-0.3118996359850805 0.183860715711011 0.0
-0.3380305648012901 -0.1938098015537095 0.0
0.3087403904931542 -0.2056570145358921 0.0
0.3177656036537955 0.185865884089424 0.0
0.1642088453136075 -0.09952339329786851 0.0
-0.1795663696400154 -0.1104699875626136 0.0
-0.03045229967806384 -0.1732050799715539 0.0
-0.353589837984547 -0.3535898380357392 0.0
-0.3535898376755096 0.3535898388248859 0.0
0.3535898384026523 0.3535898389176113 0.0
0.3535898381127851 -0.3535898392621621 0.0
0.1897502235215644 0.04187677070172824 0.0
-0.1897502234552471 0.04187677118859479 0.0
0.1092319435083175 -0.227242110912715 0.0
0.1763154399250314 0.1772367502637155 0.0
0.128576965988953 0.2144014081508694 0.0
-0.1782031642379034 0.17533862168843137 0.0
-0.12942509766535995 0.21389049556797057 0.0
-0.09532903832615729 -0.2311111733599439 0.0
-0.18031203512967345 -0.17316919468368336 0.0
-0.21430399132471042 -0.1287392686879124 0.0
0.2330247008796355 0.09055102859689929 0.0
-0.23258702553491473 0.09166938176305632 0.0
0.11052321067832621 -0.22424232406339864 0.0
0.21108762148364563 -0.133947810942834 0.0
-0.011255514848419806 -0.24974649824471376 0.0
0.0555999399515894 0.24373889036708843 0.0
-0.0549654555522933 0.24388275606332796 0.0
0.24303784275435114 -0.05858845440282072 0.0
-0.239327667122175 -0.0722652596332254 0.0
0.10649479479940313 -0.2261832413788277 0.0
-0.24910509521486374 0.021134132061514627 0.0
0.24910509524403163 0.021134131717721993 0.0
0.1763154399250314 0.1772367502637155 0.0
0.128576965988953 0.2144014081508694 0.0
-0.1782031642379034 0.17533862168843137 0.0
-0.12942509766535995 0.21389049556797057 0.0
-0.09532903832615729 -0.2311111733599439 0.0
-0.18031203512967345 -0.17316919468368336 0.0
-0.21430399132471042 -0.1287392686879124 0.0
0.2330247008796355 0.09055102859689929 0.0
-0.23258702553491473 0.09166938176305632 0.0
0.11052321067832621 -0.22424232406339864 0.0
0.21108762148364563 -0.133947810942834 0.0
-0.011255514848419806 -0.24974649824471376 0.0
0.0555999399515894 0.24373889036708843 0.0
-0.0549654555522933 0.24388275606332796 0.0
0.24303784275435114 -0.05858845440282072 0.0
-0.239327667122175 -0.0722652596332254 0.0
0.10649479479940313 -0.2261832413788277 0.0
-0.24910509521486374 0.021134132061514627 0.0
0.24910509524403163 0.021134131717721993 0.0

CELLS 87 367
3 33 44 30
3 13 28 12
3 6 20 5
3 18 23 17
3 10 22 9
3 6 30 20
3 21 28 13
3 5 29 4
3 7 30 6
3 14 21 13
3 20 29 5
3 14 24 21
3 25 27 26
3 15 24 14
3 19 32 18
3 17 31 16
3 11 34 10
3 9 33 8
3 18 32 23
3 23 31 17
3 22 33 9
3 10 34 22
3 0 38 19
3 4 38 0
3 16 39 3
3 3 39 15
3 8 41 1
3 2 40 11
3 12 40 2
3 1 41 7
3 27 37 35
3 27 42 26
3 25 43 27
3 35 42 27
3 27 43 36
3 11 40 34
3 33 41 8
3 31 39 16
3 19 38 32
3 28 40 12
3 29 38 4
3 7 41 30
3 15 39 24
3 30 44 20
3 24 39 31
3 34 40 28
3 30 41 33
3 32 38 29
3 36 37 27
3 45 46 26
4 65 64 34 28
3 48 47 25
4 66 67 24 31
3 68 69 29
4 50 49 37 36
3 51 50 36
4 69 70 32 29
3 64 71 34
4 52 45 26 42
3 72 66 31
4 47 53 43 25
3 54 55 35
4 74 73 44 33
3 49 56 37
4 75 68 29 20
3 46 57 26
4 76 65 28 21
3 58 48 25
4 67 77 21 24
3 77 76 21
4 57 58 25 26
3 55 59 35
4 78 74 33 22
3 60 51 36
4 70 79 23 32
3 73 80 44
4 61 54 35 37
3 53 62 43
4 81 72 31 23
3 63 52 42
4 71 82 22 34
3 82 78 22
4 59 63 42 35
3 79 81 23
4 62 60 36 43
3 56 61 37
4 80 75 20 44

CELL_TYPES 87
5
5
5
5
5
5
5
5
5
5
5
5
5
5
5
5
5
5
5
5
5
5
5
5
5
5
5
5
5
5
5
5
5
5
5
5
5
5
5
5
5
5
5
5
5
5
5
5
5
5
9
5
9
5
9
5
9
5
9
5
9
5
9
5
9
5
9
5
9
5
9
5
9
5
9
5
9
5
9
5
9
5
9
5
9
5
9

POINT_DATA 83
SCALARS U float
LOOKUP_TABLE default
-0.5511363636363636
0.5511363636363636
0.5511363636363636
-0.5511363636363636
-0.3451203208561987
-0.11966783216914322
0.11966783216652115
0.3451203208550209
0.5752005347592847
0.5983391608390769
0.5983391608392448
0.5752005347594319
0.3451203208562091
0.11966783216914322
-0.11966783216652115
-0.3451203208550209
-0.5752005347592258
-0.5983391608390769
-0.5983391608392448
-0.5752005347594319
0.01852719525695252
0.00010327517002050165
0.48104095810158803
-0.4808952325653798
-0.262818570108596
-1.208250222903366
-0.7931474161873883
-1.0000598015852709
0.26316418670886815
-0.2508087972910336
0.25819374100595827
-0.4285363135027849
-0.44638446158006856
0.41731515923410367
0.433018256346175
-0.6640564601640135
-1.346463740837802
-1.069434218290244
-0.42393528193598945
-0.4241097884480352
0.4239900921316614
0.42383070055750727
-0.6224873798215887
-1.3789331757484333
0.1912210189090671
-0.7157817242633261
-0.7780511298055661
-1.2871426989809127
-1.222938588011105
-1.1474486921791671
-1.316457731733665
-1.3687080981162778
-0.6033910447700107
-1.3964306330044476
-0.8053534480949904
-0.637083379338068
-1.0298298202768703
-0.8882764369798959
-1.110396296835274
-0.5974952253206735
-1.3976748125727105
-0.8138638223406571
-1.4200861022377917
-0.5805021791103792
0.2842470766154147
0.22194264343015785
-0.287181264505601
-0.2229288106382057
-0.14746371047243578
-0.3164311441443023
-0.3687376770118852
0.39657835273398984
-0.39638693896448374
0.19464495859976744
0.3629237826193033
-0.029822541035299393
0.11171142810830219
-0.11038546446968693
0.4024835249284593
-0.39762362412084135
0.18616265037023305
-0.42013776334896064
0.41953242250439077
