# vtk DataFile Version 3.0
Broken Mesh Solution
ASCII
DATASET UNSTRUCTURED_GRID

POINTS 208 float
-0.5 -0.5 0.0
0.5 -0.5 0.0
0.5 0.5 0.0
-0.5 0.5 0.0
-0.4000000000002774 -0.5 0.0
-0.3000000000005548 -0.5 0.0
-0.2000000000008322 -0.5 0.0
-0.1000000000011096 -0.5 0.0
-1.376121439022882e-12 -0.5 0.0
0.09999999999889042 -0.5 0.0
0.1999999999991677 -0.5 0.0
0.2999999999994452 -0.5 0.0
0.3999999999997227 -0.5 0.0
0.5 -0.4000000000002774 0.0
0.5 -0.3000000000005548 0.0
0.5 -0.2000000000008322 0.0
0.5 -0.1000000000011096 0.0
0.5 -1.376121439022882e-12 0.0
0.5 0.09999999999889042 0.0
0.5 0.1999999999991677 0.0
0.5 0.2999999999994452 0.0
0.5 0.3999999999997227 0.0
0.4000000000002774 0.5 0.0
0.3000000000005548 0.5 0.0
0.2000000000008322 0.5 0.0
0.1000000000011096 0.5 0.0
1.376121439022882e-12 0.5 0.0
-0.09999999999889042 0.5 0.0
-0.1999999999991677 0.5 0.0
-0.2999999999994452 0.5 0.0
-0.3999999999997227 0.5 0.0
-0.5 0.4000000000002774 0.0
-0.5 0.3000000000005548 0.0
-0.5 0.2000000000008322 0.0
-0.5 0.1000000000011096 0.0
-0.5 1.376121439022882e-12 0.0
-0.5 -0.09999999999889042 0.0
-0.5 -0.1999999999991677 0.0
-0.5 -0.2999999999994452 0.0
-0.5 -0.3999999999997227 0.0
0.04999999999875715 -0.4133974596215562 0.0
0.4152217187510515 0.04684029069178843 0.0
-0.04999999985265347 0.4133974597511204 0.0
-0.4076320725312769 -0.0394257188114977 0.0
-0.1500000000009709 -0.4133974596217962 0.0
-0.411145698765012 0.1509202002034012 0.0
0.1499999995903051 0.4133974600374489 0.0
0.4133974596217964 -0.1500000000009709 0.0
0.4103703875967187 0.2586725662626632 0.0
0.2459788033610274 -0.420407742711961 0.0
-0.2491826988485775 0.4138693290592436 0.0
-0.4237016857210891 -0.2482623094653145 0.0
0.3495762629647021 0.4153227955512451 0.0
-0.3445559453155349 -0.4045047171999605 0.0
-0.4094302756766782 0.3408174382925974 0.0
0.4170502602198034 -0.3494067674890009 0.0
-0.1498637832980226 0.4134761045749534 0.0
-0.09997729724015991 0.3268080269577817 0.0
3.783840146986961e-06 0.3267971041476624 0.0
-0.04999558519806314 0.2401949281689395 0.0
0.05000136654125134 0.2401931685788098 0.0
9.639281866036242e-07 0.1535903956375182 0.0
-0.09984432727009107 0.1531143292174224 0.0
-0.04965695216937679 0.06672515386886879 0.0
0.05005733601284632 0.06694370138292127 0.0
6.6732310603973e-05 -0.01966619862925557 0.0
0.1000000013865279 -0.019615240381395 0.0
-0.09961476112615934 -0.01985041170069299 0.0
-0.04992466947303528 -0.1062654702727619 0.0
-0.1489630096513057 -0.1057105383980819 0.0
0.1500095564649925 0.06698003393904618 0.0
0.2044674135023774 -0.01634724423329158 0.0
0.1507445709608928 -0.1056731150664913 0.0
-0.1999999980338455 -0.01961524234200415 0.0
-0.09981461147643493 -0.1927437309484892 0.0
-0.1973170855811076 -0.1930455996271069 0.0
4.345512283956966e-05 -0.1928155056496315 0.0
-0.04999999690962931 -0.2794228636454371 0.0
0.2516166973369256 0.0701276420705621 0.0
0.2002710419099134 0.1541120197082647 0.0
0.2535395659327566 -0.1012768331339603 0.0
0.2000000029825665 -0.1928203201754502 0.0
0.2999999994281622 0.153589841540139 0.0
0.2471445380969833 0.2386047284310652 0.0
0.0500000025469215 -0.279422863648176 0.0
0.3109814392355192 -0.1952466229877041 0.0
0.2487737627292085 -0.2784372532295689 0.0
-0.1998372967901187 0.3268888567191892 0.0
-0.3005910771561144 0.3296981767656698 0.0
-0.25008411581319 0.2399423809129905 0.0
-0.3505076043076292 0.2430273512057304 0.0
-0.3032721004905549 0.1521628085435943 0.0
-0.3524960445780406 0.05946856525102581 0.0
-0.2538603516508897 0.06475852377564764 0.0
-0.2992114866170583 -0.02621944664290413 0.0
-0.3370418170652396 -0.1196113517313169 0.0
-0.2008598752546166 0.1526766339662378 0.0
-0.1499999998873648 0.2401923794702846 0.0
0.1001313391052143 -0.1927287416674222 0.0
-0.1499999977755548 -0.2794228641460996 0.0
-0.2499999977828671 -0.2794228638194174 0.0
0.150000002020345 -0.2794228638861159 0.0
0.05017690501265788 -0.1061273784467515 0.0
0.3994183954611402 0.1528983902791475 0.0
-0.04999999986442846 -0.41339745967258 0.0
0.1499999998851298 -0.4133974595555558 0.0
0.05000063082559747 0.413397823929229 0.0
0.4157740973239125 -0.05052661831112203 0.0
0.316798636001166 -0.01002014529810135 0.0
0.4132470463629067 -0.249108898086658 0.0
0.2499293768951764 0.4137183494159732 0.0
-0.2459001153992788 -0.4184537501999229 0.0
0.1000009631783252 0.3267954762385678 0.0
0.1000567107508092 0.1536686166221679 0.0
0.3151207757181165 0.3183362624604144 0.0
0.1495791031331315 0.2400281549562807 0.0
0.2019624593641818 0.3251467385568457 0.0
-0.1493947949630068 0.06609964527562838 0.0
0.344093390402033 -0.4061456551689846 0.0
-0.4221793042286323 -0.3465660396435947 0.0
0.4167632342577564 0.3508758806419739 0.0
-0.3469321223194075 0.4178724626042243 0.0
-0.2451895695599474 -0.1082409310554205 0.0
-0.4233581306043732 -0.1499999999990291 0.0
-0.2886952964620358 -0.1991330683498098 0.0
0.3380531190564605 -0.2999999984123848 0.0
-0.3392252864308937 -0.2884203619459293 0.0
0.3406936254548902 -0.1007214508094408 0.0
-0.4342167156884508 0.2469529980846549 0.0
-0.2000000000008324 -0.3464101630497227 0.0
-0.09999999989868093 -0.3464101630077296 0.0
0.0999999998977317 -0.346410162299078 0.0
0.2000000001624926 -0.346410162517709 0.0
1.574351621291826e-10 -0.3464101626273286 0.0
0.3325961897233922 0.2301442883232016 0.0
-0.4347437368270946 0.05000000000124291 0.0
0.3366110895343338 0.08268720401083307 0.0
0.4267949192259739 -0.4267949186515829 0.0
-0.4267949185820857 0.4267949190974908 0.0
-0.4267949192270882 -0.4267949192526842 0.0
0.426794919364929 0.4267949193647806 0.0
-0.3646000320882243 -0.1946433738442048 0.0
-0.2759362689443799 -0.3474423712865919 0.0
0.2753798153196002 -0.3502801623452327 0.0
0.2496186034793647 -0.013804086243276392 0.0
0.2384396779851882 -0.07514332945990436 0.0
0.24372613425269235 0.05565583062212437 0.0
-0.24142417047064552 0.06491817859860821 0.0
-0.24482486899254394 0.05060418483469209 0.0
-0.24895138065552747 -0.022873785644415744 0.0
-0.1995915711177351 0.1505430328469378 0.0
-0.13342621181344158 0.21141770503227642 0.0
-0.1979545435074542 0.15268922262149157 0.0
-0.23436745899984515 -0.08701663152499005 0.0
0.11650501411156605 -0.22119353898082958 0.0
0.15916897465228416 -0.19278287855451964 0.0
0.18565097912830442 -0.1674327177605434 0.0
-0.18408726429502248 -0.16915046297416586 0.0
-0.15899431192052146 -0.19292695191942447 0.0
-0.11633748953988275 -0.22128169496720168 0.0
-0.07320741943055165 -0.23904115490918987 0.0
-0.06932988668097206 0.24019443541761112 0.0
-0.05244379053906102 0.24443741291769372 0.0
0.22808174854665103 -0.10236559959235492 0.0
-0.04689695464098522 0.24556195887270768 0.0
0.07338187538281626 -0.2389876573492884 0.0
0.03185312131252125 -0.24796245413902837 0.0
0.046902505896361794 0.2455608986395061 0.0
-0.0318237280249396 -0.24796622821383296 0.0
0.2400670064379495 0.06976985323133146 0.0
0.19686070204948333 0.15409693049695866 0.0
0.19880819234589206 0.1515760622794996 0.0
0.05245088955724723 0.2444358897229568 0.0
0.13323994562778238 0.21153514339018367 0.0
0.06944580444003008 0.24016094654559697 0.0
-0.22559954482150923 -0.1077257878891025 0.0
0.2496186034793647 -0.013804086243276392 0.0
0.2384396779851882 -0.07514332945990436 0.0
0.24372613425269235 0.05565583062212437 0.0
-0.24142417047064552 0.06491817859860821 0.0
-0.24482486899254394 0.05060418483469209 0.0
-0.24895138065552747 -0.022873785644415744 0.0
-0.1995915711177351 0.1505430328469378 0.0
-0.13342621181344158 0.21141770503227642 0.0
-0.1979545435074542 0.15268922262149157 0.0
-0.23436745899984515 -0.08701663152499005 0.0
0.11650501411156605 -0.22119353898082958 0.0
0.15916897465228416 -0.19278287855451964 0.0
0.18565097912830442 -0.1674327177605434 0.0
-0.18408726429502248 -0.16915046297416586 0.0
-0.15899431192052146 -0.19292695191942447 0.0
-0.11633748953988275 -0.22128169496720168 0.0
-0.07320741943055165 -0.23904115490918987 0.0
-0.06932988668097206 0.24019443541761112 0.0
-0.05244379053906102 0.24443741291769372 0.0
0.22808174854665103 -0.10236559959235492 0.0
-0.04689695464098522 0.24556195887270768 0.0
0.07338187538281626 -0.2389876573492884 0.0
0.03185312131252125 -0.24796245413902837 0.0
0.046902505896361794 0.2455608986395061 0.0
-0.0318237280249396 -0.24796622821383296 0.0
0.2400670064379495 0.06976985323133146 0.0
0.19686070204948333 0.15409693049695866 0.0
0.19880819234589206 0.1515760622794996 0.0
0.05245088955724723 0.2444358897229568 0.0
0.13323994562778238 0.21153514339018367 0.0
0.06944580444003008 0.24016094654559697 0.0
-0.22559954482150923 -0.1077257878891025 0.0

CELLS 278 1144
3 48 120 114
3 114 134 48
3 85 109 47
3 43 94 92
3 54 90 88
3 80 127 108
3 85 125 109
3 92 135 43
3 54 128 90
3 45 91 90
3 45 92 91
3 47 127 85
3 43 95 94
3 114 120 52
3 103 134 82
3 88 121 54
3 55 125 118
3 86 125 85
3 96 97 89
3 53 126 119
3 82 136 103
3 48 134 103
3 124 141 126
3 91 96 89
3 92 93 91
3 125 143 118
3 90 128 45
3 93 96 91
3 92 94 93
3 81 101 86
3 72 102 98
3 98 102 76
3 87 97 57
3 56 87 57
3 89 97 87
3 76 102 68
3 62 63 61
3 106 112 46
3 69 74 68
3 27 56 42
3 23 110 52
3 67 73 69
3 11 49 10
3 32 54 31
3 48 103 19
3 74 76 68
3 49 105 10
3 67 69 68
3 28 56 27
3 63 65 64
3 67 68 65
3 14 109 55
3 7 104 44
3 25 106 46
3 10 105 9
3 18 41 17
3 75 100 99
3 56 57 42
3 9 40 8
3 27 42 26
3 36 43 35
3 20 48 19
3 38 51 37
3 7 44 6
3 16 47 15
3 34 45 33
3 6 111 5
3 44 111 6
3 5 53 4
3 23 52 22
3 5 111 53
3 50 87 56
3 68 102 65
3 8 104 7
3 90 91 89
3 9 105 40
3 66 72 71
3 63 64 61
3 50 56 28
3 65 66 64
3 40 104 8
3 63 67 65
3 19 103 18
3 24 110 23
3 18 103 41
3 58 112 106
3 41 107 17
3 66 102 72
3 82 83 79
3 81 85 80
3 66 71 70
3 110 114 52
3 88 90 89
3 78 82 79
3 57 58 42
3 41 108 107
3 29 50 28
3 25 46 24
3 14 55 13
3 50 88 87
3 66 70 64
3 65 102 66
3 81 86 85
3 26 106 25
3 59 61 60
3 17 107 16
3 59 62 61
3 110 116 114
3 58 106 42
3 16 107 47
3 70 113 64
3 64 113 61
3 88 89 87
3 15 109 14
3 42 106 26
3 114 116 83
3 61 113 60
3 46 110 24
3 112 116 46
3 83 115 79
3 115 116 112
3 83 116 115
3 46 116 110
3 47 109 15
3 124 126 100
3 95 122 94
3 122 124 75
3 53 142 126
3 62 117 63
3 67 117 73
3 43 123 95
3 63 117 67
3 21 120 20
3 39 119 38
3 12 118 11
3 30 121 29
3 50 121 88
3 95 124 122
3 36 123 43
3 51 123 37
3 45 135 92
3 108 127 107
3 85 127 80
3 11 118 49
3 38 119 51
3 29 121 50
3 20 120 48
3 32 128 54
3 45 128 33
3 83 134 114
3 43 135 35
3 34 135 45
3 103 136 41
3 31 138 3
3 1 137 12
3 3 138 30
3 13 137 1
3 0 139 39
3 4 139 0
3 2 140 21
3 22 140 2
3 126 141 51
3 37 123 36
3 75 124 100
3 109 125 55
3 107 127 47
3 108 136 78
3 119 126 51
3 111 142 53
3 78 136 82
3 101 132 86
3 99 130 77
3 100 129 99
3 129 130 99
3 84 133 131
3 131 132 101
3 130 133 77
3 77 133 84
3 84 131 101
3 105 132 131
3 131 133 40
3 105 131 40
3 33 128 32
3 49 132 105
3 104 130 44
3 44 130 129
3 44 129 111
3 40 133 104
3 104 133 130
3 82 134 83
3 35 135 34
3 41 136 108
3 118 143 49
3 21 140 120
3 12 137 118
3 39 139 119
3 30 138 121
3 54 138 31
3 52 140 22
3 53 139 4
3 55 137 13
3 51 141 123
3 120 140 52
3 118 137 55
3 119 139 53
3 121 138 54
3 123 141 95
3 95 141 124
3 86 143 125
3 126 142 100
3 129 142 111
3 100 142 129
3 132 143 86
3 49 143 132
3 145 144 71
4 176 177 80 108
3 144 146 71
4 178 176 108 78
3 180 179 93
4 147 148 73 117
3 148 149 73
4 181 180 93 94
3 150 147 117
4 147 150 96 93
3 151 152 62
4 184 183 97 96
3 149 153 73
4 185 181 94 122
3 154 155 98
4 187 186 101 81
3 188 187 81
4 155 156 72 98
3 190 189 75
4 157 158 74 69
3 159 160 74
4 192 191 99 77
3 158 159 74
4 191 190 75 99
3 162 161 59
4 193 194 57 97
3 156 163 72
4 195 188 81 80
3 164 162 59
4 194 196 58 57
3 177 195 80
4 163 145 71 72
3 197 198 84
4 166 165 98 76
3 183 193 97
4 161 151 62 59
3 196 199 58
4 167 164 59 60
3 200 192 77
4 160 168 76 74
3 165 154 98
4 186 197 84 101
3 201 178 78
4 146 169 70 71
3 202 203 79
4 171 170 113 70
3 169 171 70
4 171 169 78 79
3 168 166 76
4 198 200 77 84
3 172 167 60
4 199 204 112 58
3 170 173 113
4 205 202 79 115
3 206 205 115
4 173 174 60 113
3 174 172 60
4 204 206 115 112
3 182 184 96
4 152 150 117 62
3 175 157 69
4 189 207 122 75
3 207 185 122
4 153 175 69 73

CELL_TYPES 278
5
5
5
5
5
5
5
5
5
5
5
5
5
5
5
5
5
5
5
5
5
5
5
5
5
5
5
5
5
5
5
5
5
5
5
5
5
5
5
5
5
5
5
5
5
5
5
5
5
5
5
5
5
5
5
5
5
5
5
5
5
5
5
5
5
5
5
5
5
5
5
5
5
5
5
5
5
5
5
5
5
5
5
5
5
5
5
5
5
5
5
5
5
5
5
5
5
5
5
5
5
5
5
5
5
5
5
5
5
5
5
5
5
5
5
5
5
5
5
5
5
5
5
5
5
5
5
5
5
5
5
5
5
5
5
5
5
5
5
5
5
5
5
5
5
5
5
5
5
5
5
5
5
5
5
5
5
5
5
5
5
5
5
5
5
5
5
5
5
5
5
5
5
5
5
5
5
5
5
5
5
5
5
5
5
5
5
5
5
5
5
5
5
5
5
5
5
5
5
5
5
5
5
5
5
5
5
5
5
5
5
5
5
5
5
9
5
9
5
9
5
9
5
9
5
9
5
9
5
9
5
9
5
9
5
9
5
9
5
9
5
9
5
9
5
9
5
9
5
9
5
9
5
9
5
9
5
9
5
9
5
9
5
9
5
9
5
9
5
9
5
9
5
9
5
9
5
9

POINT_DATA 208
SCALARS U float
LOOKUP_TABLE default
-0.5511363636363636
0.5511363636363636
0.5511363636363636
-0.5511363636363636
-0.44988913525527496
-0.3451203208562091
-0.23526645768118923
-0.11966783216914322
-1.6576008242775623e-12
0.11966783216652115
0.23526645767931223
0.3451203208550209
0.44988913525470403
0.5623614190687024
0.5752005347592847
0.5881661442005257
0.5983391608390769
0.6022727272727273
0.5983391608392448
0.5881661442007282
0.5752005347594319
0.5623614190687699
0.4498891352552739
0.3451203208562091
0.23526645768118923
0.11966783216914322
1.6576008242775623e-12
-0.11966783216652115
-0.23526645767931223
-0.3451203208550209
-0.44988913525470403
-0.5623614190687024
-0.5752005347592847
-0.5881661442005257
-0.5983391608390769
-0.6022727272727273
-0.5983391608392448
-0.5881661442007282
-0.5752005347594319
-0.5623614190687699
0.06541579800434685
0.5347434186978053
-0.06442600672036206
-0.5272728882038292
-0.18836831074981983
-0.5239782448699315
0.18879029058999955
0.5247521071831439
0.4968852493971887
0.2994735866034704
-0.3039968789514123
-0.5120449787507168
0.4091845166135006
-0.40599008651552176
-0.48363499255602893
0.4894212302801977
-0.18936525215386618
-0.14237015190965951
0.0004982763855186736
-1.0891402237414718
-0.9103689722998015
-0.9820111885678268
-1.1945629968012912
-1.0235675458277544
-0.8449248284922201
-0.948695679970086
-0.7623798268346202
-1.1183487808846828
-1.0602546878653452
-1.2521632051579423
-0.5253641724948226
-0.6538244329069229
-0.7181507656772761
-1.3743450642288684
-1.1697744804823549
-0.3252297452464747
-0.9878565061630037
-0.07883641905801975
0.36319723809149723
0.37319104063282105
0.42502308759724744
0.3338719695161787
0.41987064801376217
0.35083327939246567
0.08369322749818273
0.4297795212503319
0.3413566368266037
-0.27031048909095295
-0.3783216465881441
-0.354901981145189
-0.4510298642888127
-0.44682357741006323
-0.5025343066406628
-0.5095103404418491
-0.4415013673940141
-0.46422623076674746
-0.33371879047579045
-0.2528762900533292
-0.812783492108724
-0.22400845072322043
-0.33837945270411474
0.22831409926269056
-0.8816439516341831
0.5049371554302043
-0.06362755616771602
0.19001890402176513
0.06456079901028661
0.5406276135137777
0.49976926417716583
0.5044526706141411
0.30338366506561804
-0.2984524635371782
0.1428364556105016
-0.8278665962858942
0.3928380866458467
0.236914992669349
0.2698246427195303
-1.0547643829939841
0.4063512918746496
-0.4938196606413299
0.48738115367296275
-0.4072010087146929
-0.41485039323673184
-0.5278569296565561
-0.40423501492130054
0.42304781355101306
-0.4242084460294382
0.48356788658523403
-0.5242511354200012
-0.261914693715042
-0.13728849269457336
0.14042097143495344
0.26470908847414126
0.0016455075345495113
0.4305773969083183
-0.5528564930793405
0.4637094313633097
0.48683869948220654
-0.4867901647232561
-0.4863842700783805
0.48621644726644175
-0.47004351044014747
-0.3459670742797799
0.34695858138866237
-0.5813527873612477
-0.5805646562189549
-0.3740644421292511
-0.3116615570302858
-1.2420558026471151
-1.4707248561579433
-2.036805289777826
-1.187914207577382
-1.483199966042725
-1.421939600429804
-0.7891468665460127
-0.7142599934083114
-0.6641956856821787
-1.326715224158045
-1.2787481543087986
-1.2039012720594109
-1.1279841330057803
-1.1237272096333946
-1.0909028219221157
-0.5906783610518442
-1.0790411198672685
-0.8655220380626009
-0.9419213238030986
-0.9197693381282087
-1.0517184238560315
0.5124782097368402
-0.7585350743410704
-1.2144697210809086
-0.9015685905500491
-0.7215509287257167
-0.8724152175692037
-1.3967960603545295
0.4262188367972067
0.4332042216956002
0.6520877814240483
-0.13629190822601897
-0.23884170894558232
-0.47604787179552177
-0.40894903498156354
-0.21197626760076044
-0.4288272608136114
-0.41253478595705806
0.21232223597112998
0.29143556130117504
0.33769120860506907
-0.3279048205722341
-0.28535710496140826
-0.20591607554128946
-0.1279597771176222
-0.11739249860448503
-0.09509314005635637
0.4118916651305099
-0.07762300712565476
0.1338920214293518
0.0605127408802055
0.07905973138134026
-0.054720117417406504
0.7073610986096313
0.2986713182834084
0.30349324815034606
0.09755606238357481
0.26103179775792956
0.1366908000778013
-0.40448012738474176
