# vtk DataFile Version 3.0
Broken Mesh Solution
ASCII
DATASET UNSTRUCTURED_GRID

POINTS 83 float
-0.5 -0.5 0.0
0.5 -0.5 0.0
0.5 0.5 0.0
-0.5 0.5 0.0
-0.3000000000005548 -0.5 0.0
-0.1000000000011096 -0.5 0.0
0.09999999999889042 -0.5 0.0
0.2999999999994452 -0.5 0.0
0.5 -0.3000000000005548 0.0
0.5 -0.1000000000011096 0.0
0.5 0.09999999999889042 0.0
0.5 0.2999999999994452 0.0
0.3000000000005548 0.5 0.0
0.1000000000011096 0.5 0.0
-0.09999999999889042 0.5 0.0
-0.2999999999994452 0.5 0.0
-0.5 0.3000000000005548 0.0
-0.5 0.1000000000011096 0.0
-0.5 -0.09999999999889042 0.0
-0.5 -0.2999999999994452 0.0
0.01186163360387493 -0.3419191899049053 0.0
-1.767198609670118e-10 0.3267949199874239 0.0
0.3372448433756492 -0.009667905631191125 0.0
-0.3372448437839337 -0.009667905633454987 0.0
-0.1991525258902135 0.3306455924698948 0.0
-0.1035600177128985 0.1705807106941144 0.0
0.1031079264484775 0.1727707431967468 0.0
-2.511080247603339e-09 -0.01961523986401409 0.0
0.1995294982153665 0.3303775560566518 0.0
-0.1819202843924578 -0.3083986709410143 0.0
0.1999218205120479 -0.3517369373688328 0.0
-0.3118996359850805 0.183860715711011 0.0
-0.3380305648012901 -0.1938098015537095 0.0
0.3087403904931542 -0.2056570145358921 0.0
0.3177656036537955 0.185865884089424 0.0
0.1642088453136075 -0.09952339329786851 0.0
-0.1795663696400154 -0.1104699875626136 0.0
-0.03045229967806384 -0.1732050799715539 0.0
-0.353589837984547 -0.3535898380357392 0.0
-0.3535898376755096 0.3535898388248859 0.0
0.3535898384026523 0.3535898389176113 0.0
0.3535898381127851 -0.3535898392621621 0.0
0.1897502235215644 0.04187677070172824 0.0
-0.1897502234552471 0.04187677118859479 0.0
0.1185489110229897 -0.24662478687121875 0.0
0.1763154399250314 0.1772367502637155 0.0
0.128576965988953 0.2144014081508694 0.0
-0.1782031642379034 0.17533862168843137 0.0
-0.12942509766535995 0.21389049556797057 0.0
-0.09532903832615729 -0.2311111733599439 0.0
-0.18031203512967345 -0.17316919468368336 0.0
-0.21430399132471042 -0.1287392686879124 0.0
0.2330247008796355 0.09055102859689929 0.0
-0.23258702553491473 0.09166938176305632 0.0
0.12854502990109215 -0.21442055705488522 0.0
0.21108762148364563 -0.133947810942834 0.0
-0.011255514848419806 -0.24974649824471376 0.0
0.0555999399515894 0.24373889036708843 0.0
-0.0549654555522933 0.24388275606332796 0.0
0.24303784275435114 -0.05858845440282072 0.0
-0.239327667122175 -0.0722652596332254 0.0
0.09077299700942848 -0.2329383244851011 0.0
-0.24910509521486374 0.021134132061514627 0.0
0.24910509524403163 0.021134131717721993 0.0
0.1763154399250314 0.1772367502637155 0.0
0.128576965988953 0.2144014081508694 0.0
-0.1782031642379034 0.17533862168843137 0.0
-0.12942509766535995 0.21389049556797057 0.0
-0.09532903832615729 -0.2311111733599439 0.0
-0.18031203512967345 -0.17316919468368336 0.0
-0.21430399132471042 -0.1287392686879124 0.0
0.2330247008796355 0.09055102859689929 0.0
-0.23258702553491473 0.09166938176305632 0.0
0.12854502990109215 -0.21442055705488522 0.0
0.21108762148364563 -0.133947810942834 0.0
-0.011255514848419806 -0.24974649824471376 0.0
0.0555999399515894 0.24373889036708843 0.0
-0.0549654555522933 0.24388275606332796 0.0
0.24303784275435114 -0.05858845440282072 0.0
-0.239327667122175 -0.0722652596332254 0.0
0.09077299700942848 -0.2329383244851011 0.0
-0.24910509521486374 0.021134132061514627 0.0
0.24910509524403163 0.021134131717721993 0.0

CELLS 87 367
3 33 44 30
3 13 28 12
3 6 20 5
3 18 23 17
3 10 22 9
3 6 30 20
3 21 28 13
3 5 29 4
3 7 30 6
3 14 21 13
3 20 29 5
3 14 24 21
3 25 27 26
3 15 24 14
3 19 32 18
3 17 31 16
3 11 34 10
3 9 33 8
3 18 32 23
3 23 31 17
3 22 33 9
3 10 34 22
3 0 38 19
3 4 38 0
3 16 39 3
3 3 39 15
3 8 41 1
3 2 40 11
3 12 40 2
3 1 41 7
3 27 37 35
3 27 42 26
3 25 43 27
3 35 42 27
3 27 43 36
3 11 40 34
3 33 41 8
3 31 39 16
3 19 38 32
3 28 40 12
3 29 38 4
3 7 41 30
3 15 39 24
3 30 44 20
3 24 39 31
3 34 40 28
3 30 41 33
3 32 38 29
3 36 37 27
3 45 46 26
4 65 64 34 28
3 48 47 25
4 66 67 24 31
3 68 69 29
4 50 49 37 36
3 51 50 36
4 69 70 32 29
3 64 71 34
4 52 45 26 42
3 72 66 31
4 47 53 43 25
3 54 55 35
4 74 73 44 33
3 49 56 37
4 75 68 29 20
3 46 57 26
4 76 65 28 21
3 58 48 25
4 67 77 21 24
3 77 76 21
4 57 58 25 26
3 55 59 35
4 78 74 33 22
3 60 51 36
4 70 79 23 32
3 73 80 44
4 61 54 35 37
3 53 62 43
4 81 72 31 23
3 63 52 42
4 71 82 22 34
3 82 78 22
4 59 63 42 35
3 79 81 23
4 62 60 36 43
3 56 61 37
4 80 75 20 44

CELL_TYPES 87
5
5
5
5
5
5
5
5
5
5
5
5
5
5
5
5
5
5
5
5
5
5
5
5
5
5
5
5
5
5
5
5
5
5
5
5
5
5
5
5
5
5
5
5
5
5
5
5
5
5
9
5
9
5
9
5
9
5
9
5
9
5
9
5
9
5
9
5
9
5
9
5
9
5
9
5
9
5
9
5
9
5
9
5
9
5
9

POINT_DATA 83
SCALARS U float
LOOKUP_TABLE default
-0.5
-0.5
0.5
0.5
-0.5000000000000013
-0.5
-0.5
-0.5
-0.3000000000005548
-0.1000000000011096
0.09999999999889042
0.2999999999994452
0.5
0.5
0.5
0.5
0.30000000000055255
0.1000000000011096
-0.09999999999889042
-0.2999999999994452
-0.3419210181425682
0.326793381952318
-0.009668138020286743
-0.009668435377276685
0.33064442032247704
0.1705790039542139
0.1727691906354281
-0.019617078591087606
0.33037718546439776
-0.308401395238718
-0.3517374987343355
0.1838602667603399
-0.19381087746093298
-0.20565736286175468
0.18586507516122405
-0.09952408500764555
-0.11047187278058439
-0.17320877135215726
-0.3535905609131143
0.35358950722272553
0.3535896113123104
-0.35359002662859573
0.04187618032442507
0.041875621804022004
-0.24662594875237928
0.1772354536208548
0.21440017037395465
0.17533736790654655
0.21388893611455057
-0.23111444757271177
-0.17317134351161764
-0.12874097398826403
0.0905503666332135
0.09166848029682871
-0.21442161506345858
-0.13394838835665954
-0.24974934154835787
0.2437373463868152
0.24388113040704695
-0.058588934510827334
-0.07226662912486488
-0.23293995693785452
0.021133234134220164
0.02113368747279787
0.17723545362370416
0.2144001703752899
0.17533736791069177
0.21388893611480456
-0.23111444757132238
-0.17317134351820676
-0.1287409739855119
0.09055036663218823
0.0916684802943999
-0.214421615074688
-0.1339483883557687
-0.24974934155302822
0.24373734638836148
0.243881130410339
-0.0585889345136668
-0.07226662913024745
-0.2329399569336564
0.02113323413848568
0.021133687475432837
