# vtk DataFile Version 3.0
Broken Mesh Solution
ASCII
DATASET UNSTRUCTURED_GRID

POINTS 2216 float
-0.5 -0.5 0.0
0.5 -0.5 0.0
0.5 0.5 0.0
-0.5 0.5 0.0
-0.4750000000000694 -0.5 0.0
-0.4500000000001387 -0.5 0.0
-0.425000000000208 -0.5 0.0
-0.4000000000002774 -0.5 0.0
-0.3750000000003467 -0.5 0.0
-0.3500000000004161 -0.5 0.0
-0.3250000000004855 -0.5 0.0
-0.3000000000005548 -0.5 0.0
-0.2750000000006241 -0.5 0.0
-0.2500000000006935 -0.5 0.0
-0.2250000000007629 -0.5 0.0
-0.2000000000008322 -0.5 0.0
-0.1750000000009015 -0.5 0.0
-0.1500000000009709 -0.5 0.0
-0.1250000000010403 -0.5 0.0
-0.1000000000011096 -0.5 0.0
-0.0750000000011789 -0.5 0.0
-0.05000000000124821 -0.5 0.0
-0.02500000000131763 -0.5 0.0
-1.376121439022882e-12 -0.5 0.0
0.02499999999868241 -0.5 0.0
0.04999999999875171 -0.5 0.0
0.07499999999882101 -0.5 0.0
0.09999999999889042 -0.5 0.0
0.1249999999989597 -0.5 0.0
0.1499999999990291 -0.5 0.0
0.1749999999990984 -0.5 0.0
0.1999999999991677 -0.5 0.0
0.2249999999992371 -0.5 0.0
0.2499999999993064 -0.5 0.0
0.2749999999993757 -0.5 0.0
0.2999999999994452 -0.5 0.0
0.3249999999995146 -0.5 0.0
0.349999999999584 -0.5 0.0
0.3749999999996533 -0.5 0.0
0.3999999999997227 -0.5 0.0
0.424999999999792 -0.5 0.0
0.4499999999998613 -0.5 0.0
0.4749999999999307 -0.5 0.0
0.5 -0.4750000000000694 0.0
0.5 -0.4500000000001387 0.0
0.5 -0.425000000000208 0.0
0.5 -0.4000000000002774 0.0
0.5 -0.3750000000003467 0.0
0.5 -0.3500000000004161 0.0
0.5 -0.3250000000004855 0.0
0.5 -0.3000000000005548 0.0
0.5 -0.2750000000006241 0.0
0.5 -0.2500000000006935 0.0
0.5 -0.2250000000007629 0.0
0.5 -0.2000000000008322 0.0
0.5 -0.1750000000009015 0.0
0.5 -0.1500000000009709 0.0
0.5 -0.1250000000010403 0.0
0.5 -0.1000000000011096 0.0
0.5 -0.0750000000011789 0.0
0.5 -0.05000000000124821 0.0
0.5 -0.02500000000131763 0.0
0.5 -1.376121439022882e-12 0.0
0.5 0.02499999999868241 0.0
0.5 0.04999999999875171 0.0
0.5 0.07499999999882101 0.0
0.5 0.09999999999889042 0.0
0.5 0.1249999999989597 0.0
0.5 0.1499999999990291 0.0
0.5 0.1749999999990984 0.0
0.5 0.1999999999991677 0.0
0.5 0.2249999999992371 0.0
0.5 0.2499999999993064 0.0
0.5 0.2749999999993757 0.0
0.5 0.2999999999994452 0.0
0.5 0.3249999999995146 0.0
0.5 0.349999999999584 0.0
0.5 0.3749999999996533 0.0
0.5 0.3999999999997227 0.0
0.5 0.424999999999792 0.0
0.5 0.4499999999998613 0.0
0.5 0.4749999999999307 0.0
0.4750000000000694 0.5 0.0
0.4500000000001387 0.5 0.0
0.425000000000208 0.5 0.0
0.4000000000002774 0.5 0.0
0.3750000000003467 0.5 0.0
0.3500000000004161 0.5 0.0
0.3250000000004855 0.5 0.0
0.3000000000005548 0.5 0.0
0.2750000000006241 0.5 0.0
0.2500000000006935 0.5 0.0
0.2250000000007629 0.5 0.0
0.2000000000008322 0.5 0.0
0.1750000000009015 0.5 0.0
0.1500000000009709 0.5 0.0
0.1250000000010403 0.5 0.0
0.1000000000011096 0.5 0.0
0.0750000000011789 0.5 0.0
0.05000000000124821 0.5 0.0
0.02500000000131763 0.5 0.0
1.376121439022882e-12 0.5 0.0
-0.02499999999868241 0.5 0.0
-0.04999999999875171 0.5 0.0
-0.07499999999882101 0.5 0.0
-0.09999999999889042 0.5 0.0
-0.1249999999989597 0.5 0.0
-0.1499999999990291 0.5 0.0
-0.1749999999990984 0.5 0.0
-0.1999999999991677 0.5 0.0
-0.2249999999992371 0.5 0.0
-0.2499999999993064 0.5 0.0
-0.2749999999993757 0.5 0.0
-0.2999999999994452 0.5 0.0
-0.3249999999995146 0.5 0.0
-0.349999999999584 0.5 0.0
-0.3749999999996533 0.5 0.0
-0.3999999999997227 0.5 0.0
-0.424999999999792 0.5 0.0
-0.4499999999998613 0.5 0.0
-0.4749999999999307 0.5 0.0
-0.5 0.4750000000000694 0.0
-0.5 0.4500000000001387 0.0
-0.5 0.425000000000208 0.0
-0.5 0.4000000000002774 0.0
-0.5 0.3750000000003467 0.0
-0.5 0.3500000000004161 0.0
-0.5 0.3250000000004855 0.0
-0.5 0.3000000000005548 0.0
-0.5 0.2750000000006241 0.0
-0.5 0.2500000000006935 0.0
-0.5 0.2250000000007629 0.0
-0.5 0.2000000000008322 0.0
-0.5 0.1750000000009015 0.0
-0.5 0.1500000000009709 0.0
-0.5 0.1250000000010403 0.0
-0.5 0.1000000000011096 0.0
-0.5 0.0750000000011789 0.0
-0.5 0.05000000000124821 0.0
-0.5 0.02500000000131763 0.0
-0.5 1.376121439022882e-12 0.0
-0.5 -0.02499999999868241 0.0
-0.5 -0.04999999999875171 0.0
-0.5 -0.07499999999882101 0.0
-0.5 -0.09999999999889042 0.0
-0.5 -0.1249999999989597 0.0
-0.5 -0.1499999999990291 0.0
-0.5 -0.1749999999990984 0.0
-0.5 -0.1999999999991677 0.0
-0.5 -0.2249999999992371 0.0
-0.5 -0.2499999999993064 0.0
-0.5 -0.2749999999993757 0.0
-0.5 -0.2999999999994452 0.0
-0.5 -0.3249999999995146 0.0
-0.5 -0.349999999999584 0.0
-0.5 -0.3749999999996533 0.0
-0.5 -0.3999999999997227 0.0
-0.5 -0.424999999999792 0.0
-0.5 -0.4499999999998613 0.0
-0.5 -0.4749999999999307 0.0
0.01250258979832731 -0.4802410094210594 0.0
0.4783493649914454 0.01250000010784282 0.0
-0.0125000000086547 0.4783493649834427 0.0
-0.478349364905389 -0.01249999999865323 0.0
0.478349366693311 -0.1124999990869419 0.0
0.111557928867399 0.4773356379663706 0.0
-0.109557895940033 -0.4762200490505169 0.0
-0.4777975394416343 0.1125439066296169 0.0
0.4783493652245874 0.1374999995682864 0.0
-0.137771401796891 0.4810323916748992 0.0
-0.4792223374613129 -0.137500870386381 0.0
0.1374999999989945 -0.4783493649053291 0.0
-0.2370113559826475 -0.4779310728206154 0.0
-0.4770195299522361 0.2374999966336873 0.0
0.2385941381736383 0.4747667164769001 0.0
0.4783493662626185 -0.2374999999756544 0.0
-0.2369092549386193 0.477330974605077 0.0
-0.4770195248733045 -0.2375000022141982 0.0
0.4783493636698904 0.2374999994206351 0.0
0.2385941455557499 -0.4747667159213693 0.0
-0.33651116525082 0.4775888533361964 0.0
-0.4777975376702283 -0.3374560930928213 0.0
0.337499999879364 -0.4783493647737478 0.0
0.4783493642712856 0.3374999998693519 0.0
-0.477968296576076 0.3375000000307185 0.0
-0.3370256181963034 -0.4789445956041007 0.0
0.3375000000004509 0.4783493650142383 0.0
0.4783493690396323 -0.3374999984860833 0.0
-0.4777975399782639 -0.4125439113231564 0.0
0.4783493626250261 0.4124999992923266 0.0
-0.4099449079386109 0.4768864705600698 0.0
0.4128846312553226 -0.4773351409098385 0.0
-0.4781271961178274 0.4136119150752315 0.0
0.4127569789690197 0.4777800134332653 0.0
-0.4106775963124472 -0.4788064740176264 0.0
0.478349370559257 -0.4124999955934711 0.0
0.4783493649019706 -0.03750000014482126 0.0
0.4783493649407358 0.0874999999043212 0.0
0.4783493647692766 0.18749999936958 0.0
0.4783493637202709 0.2874999995725596 0.0
-0.06250000009457993 0.4783493649815884 0.0
0.03750000006137533 0.4783493650142384 0.0
-0.4790289184538777 -0.08634227284190829 0.0
-0.1894531848404053 0.4767862981274312 0.0
-0.2838850135989146 0.4762439639969891 0.0
0.1586526915131929 0.47624562626931 0.0
0.2880475195526193 0.4802143024390568 0.0
-0.4763676580994742 0.2874999987351954 0.0
0.0641406442319926 -0.4769364998511914 0.0
-0.03749999996372508 -0.478349364773868 0.0
-0.478349364773868 0.03749999994119016 0.0
0.1874999999991331 -0.4783493650141183 0.0
-0.478349364905329 -0.2874999999994103 0.0
-0.4780802226650701 -0.1864707814984239 0.0
0.2880475254281963 -0.4802142996221497 0.0
-0.478349364773868 0.1625000000009361 0.0
-0.1625000000009362 -0.478349364905449 0.0
0.4783493657363135 -0.2874999999706684 0.0
0.4783493686158351 -0.1874999975847853 0.0
-0.2838850086937533 -0.4762408776765074 0.0
0.4602043622323722 -0.4773575657324607 0.0
-0.4625000001200811 0.4783493650141183 0.0
-0.4788797294635169 -0.4624074826967701 0.0
0.4789075896807184 0.4615331209240625 0.0
0.4783493649481244 -0.01249999991523532 0.0
0.456698729839676 1.197708651007323e-10 0.0
0.4566987299543603 0.02500000007631561 0.0
0.4350480947868172 0.01250000011588946 0.0
0.4350480948368609 -0.01249999995785421 0.0
0.4133974597270286 1.215161200829318e-10 0.0
0.4133974596715377 -0.02499999996048573 0.0
0.3917468246687442 -0.01249999977283016 0.0
0.3917468245356839 -0.03749999975830885 0.0
0.3700961896348497 -0.02499999959652832 0.0
0.3700961893723135 -0.04999999957228385 0.0
0.3484455544627137 -0.03749999937538639 0.0
0.348445554721905 -0.01249999947832613 0.0
0.3267949196563413 -0.02499999923383689 0.0
0.3267949198948673 6.832033758175093e-10 0.0
0.3051442847892625 -0.01249999920610945 0.0
0.30514428483832 0.01250000066958178 0.0
0.2834936498231974 6.92554784353927e-10 0.0
0.2834936498495042 -0.02499999921665613 0.0
0.2618430148412438 -0.01249999934359484 0.0
0.2618430147837096 0.01250000051168887 0.0
0.2401923797657637 4.101722295146715e-10 0.0
0.2401923799758667 -0.02499999949232245 0.0
0.2185417447747162 -0.01249999975333416 0.0
0.2185417445417721 0.01250000013298778 0.0
0.1968911095503798 -5.931038993267634e-11 0.0
0.1968911092614617 0.02499999985197898 0.0
0.1752404742555347 0.01249999965650485 0.0
0.1752404743235638 -0.01249999984392867 0.0
0.1535898392868347 -6.138188290982782e-10 0.0
0.1535898396515469 -0.02500000026830684 0.0
0.1319392044488072 -0.01250000099743993 0.0
0.131939203925829 0.01249999887345421 0.0
0.1102885691126829 -1.596208720755499e-09 0.0
0.1102885696800361 -0.02500000152991039 0.0
0.08863793429046939 -0.01250000205007913 0.0
0.08863793380761599 0.01249999787910459 0.0
0.06698729898182032 -2.436462975818898e-09 0.0
0.06698729856762 0.02499999745125057 0.0
0.04533666376449753 0.01249999721422866 0.0
0.04533666413212221 -0.01250000271743852 0.0
0.02368602887575923 -3.077205282253637e-09 0.0
0.02368602857323621 0.02499999682483378 0.0
0.02368602929041234 -0.0250000030726477 0.0
0.002035393692412985 0.01249999652235789 0.0
0.002035393296040078 0.0374999964375573 0.0
-0.01961524166464493 0.02499999616398352 0.0
-0.01961524198428163 0.04999999606332139 0.0
-0.04126587695726955 0.03749999570343268 0.0
-0.04126587720604587 0.06249999569538434 0.0
-0.01961524237409851 0.0749999959698151 0.0
-0.04126587758776411 0.08749999557540697 0.0
-0.06291651253950307 0.07499999533726134 0.0
-0.01961524283777813 0.0999999958377249 0.0
-0.06291651281802997 0.09999999520655622 0.0
-0.08456714776195624 0.08749999507068071 0.0
-0.08456714800114144 0.1124999949915563 0.0
-0.1062177829747606 0.09999999487468658 0.0
-0.1062177832054572 0.1249999947416014 0.0
-0.1278684181702287 0.1124999946361106 0.0
-0.1278684179981888 0.0874999947360221 0.0
[...]
POINT_DATA 2216
SCALARS U float
LOOKUP_TABLE default
-0.5
-0.5
0.5
0.5
-0.5000000000433047
-0.5
-0.5
-0.5
-0.5
-0.5
-0.5
-0.5
-0.5
-0.5
-0.5
-0.5
-0.5
-0.5
-0.5
-0.5
-0.5
-0.5
-0.5
-0.5
-0.5
-0.5
-0.5
-0.5
-0.5
-0.5
-0.5
-0.5
-0.5
-0.5
-0.5
-0.5
-0.5
-0.5
-0.5
-0.5
-0.5
-0.5
-0.5
-0.4750000000000694
-0.4500000000001387
-0.425000000000208
-0.4000000000002774
-0.3750000000003467
-0.3500000000004161
-0.3250000000004855
-0.3000000000005548
-0.2750000000006241
-0.2500000000006935
-0.2250000000007629
-0.2000000000008322
-0.1750000000009015
-0.1500000000009709
-0.1250000000010403
-0.1000000000011096
-0.0750000000011789
-0.05000000000124821
-0.02500000000131763
-1.376121439022882e-12
0.02499999999868241
0.04999999999875171
0.07499999999882101
0.09999999999889042
0.1249999999989597
0.1499999999990291
0.1749999999990984
0.1999999999991677
0.2249999999992371
0.2499999999993064
0.2749999999993757
0.2999999999994452
0.3249999999995146
0.349999999999584
0.3749999999996533
0.3999999999997227
0.424999999999792
0.4499999999998613
0.4749999999999307
0.4999999998981461
0.5
0.5
0.5
0.5
0.5
0.5
0.5
0.5
0.5
0.5
0.5
0.5
0.5
0.5
0.5
0.5
0.5
0.5
0.5
0.5
0.5
0.5
0.5
0.5
0.5
0.5
0.5
0.5
0.5
0.5
0.5
0.5
0.5
0.5
0.5
0.5
0.5
0.5
0.4750000000000694
0.4500000000001387
0.425000000000208
0.4000000000002774
0.3750000000003467
0.3500000000004161
0.3250000000004855
0.3000000000005548
0.2750000000006241
0.2500000000006935
0.2250000000007629
0.2000000000008322
0.1750000000009015
0.1500000000009709
0.1250000000010403
0.1000000000011096
0.0750000000011789
0.05000000000124821
0.02500000000131763
1.376121439022882e-12
-0.02499999999868241
-0.04999999999875171
-0.07499999999882101
-0.09999999999889042
-0.1249999999989597
-0.1499999999990291
-0.1749999999990984
-0.1999999999991677
-0.2249999999992371
-0.2499999999993064
-0.2749999999993757
-0.2999999999994452
-0.3249999999995146
-0.349999999999584
-0.3749999999996533
-0.3999999999997227
-0.424999999999792
-0.4499999999998613
-0.4749999999999307
-0.48024102532126317
0.012500064276864963
0.4783493715815819
-0.012500018083842887
-0.11249996008697744
0.4773357089682509
-0.47622005254754085
0.11254387229076732
0.13750007427382427
0.4810323646201538
-0.1375008754407577
-0.47834939006952776
-0.4779310730501125
0.23749996195838946
0.4747667997183658
-0.2374999851253105
0.4773309423771067
-0.23750000362777754
0.2375000647985428
-0.4747667330687116
0.47758883139023806
-0.33745609359163203
-0.4783493690954608
0.337500044075138
0.3374999780610298
-0.4789445959975213
0.4783494110031767
-0.33749999512753703
-0.4125439114928152
0.41250002372935396
0.47688645783551153
-0.4773351418236223
0.41361190338563614
0.4777800387363482
-0.478806474208026
-0.4124999953209145
-0.03749994518022441
0.08750007319259068
0.1875000712975211
0.28750005542351686
0.4783493501234575
0.4783493989481775
-0.08634228176069525
0.4767862629544461
0.47624393446601404
0.47624571105166674
0.4802143572578543
0.28749996848818693
-0.4769365247786233
-0.47834937533747723
0.03749997483119693
-0.47834938604384486
-0.28750000095536044
-0.1864707842222404
-0.4802143076995901
0.16249996421048787
-0.47834936596577243
-0.28749999196186304
-0.18749997391536136
-0.4762408780637664
-0.4773575659202707
0.47834935999183265
-0.46240748279291094
0.46153313145058156
-0.012499940133089325
1.245679881121293e-07
0.025000132877134908
0.012500194328719204
-0.012499819344409134
2.519234853242949e-07
-0.024999767652951893
-0.012499694786133327
-0.03749972067894101
-0.024999646501795533
-0.04999967911556739
-0.03749960382826382
-0.012499565402766274
-0.024999521711559742
5.230771891474528e-07
-0.012499433781535705
0.012500618943400368
6.569685689084291e-07
-0.02499939671523715
-0.012499318847533266
0.01250074962662276
6.104985644374326e-07
-0.02499943233732755
-0.012499452778622142
0.01250063058073921
5.545529402571893e-07
0.025000656774560055
0.012500560593050018
-0.012499532812724869
4.6176977845991255e-07
-0.024999625051116706
-0.012499638297914206
0.01250044941985784
3.4323222988199934e-07
-0.024999738164869594
-0.012499759277930834
0.012500317081621158
2.121896641909991e-07
0.025000280276687357
0.012500173010128585
-0.012499882977710175
7.835789971109771e-08
0.025000120553397866
-0.0249999659742647
0.012500027352067494
0.03750005324537747
0.024999963450631595
0.04999997078769377
0.03749988687615886
0.06249987432756182
0.07499997122146189
0.08749985172917335
0.0749997662028883
0.09999996171883802
0.09999972197590754
0.08749964911716912
0.11249958779013874
0.09999952416053566
0.12499945372460916
0.11249938697931187
0.0874994736873706
0.13749931987161151
0.14999938831821735
0.1624993061689718
0.09999933260528145
0.07499944716068765
0.17499931329926768
0.1874993294604972
0.08749931957361241
0.062499453744102915
0.19999915291894596
0.07499935740197408
0.04999949390846113
0.21037842985043206
0.19801760074767882
0.22499952607911028
0.21249963970483843
0.22276089862936801
0.06249942972478574
0.037499566272241214
0.024999596658243542
0.012499643983656265
-3.2561943706594516e-07
-0.012500284149104052
-0.0250002606900787
-0.03750020657948531
-0.05000021057313921
-0.06250015871437951
-0.07500017991952397
-0.08750012785319632
-0.10000017300551853
-0.11250010976851858
-0.12500021832590197
-0.13750020274966437
-0.1500004331426745
-0.16250007374351008
-0.17500001485082492
-0.18750002049084033
-0.19999998921116485
-0.18749999202714573
-0.21250000295224034
-0.21249991848421593
-0.19801807571076468
-0.2250001284118917
-0.2103798802057775
-0.23750002253950878
-0.2227619895734939
0.2374995420170569
0.22499948533295164
-0.06249964326651751
-0.05000009508061846
-0.25000001835742053
-0.24999983090753317
-0.23983163467540014
0.24999953976684983
0.23749950180830326
-0.20000001384593116
-0.22500000657528466
-0.1249999184485275
0.02499963622639914
0.26249957134860985
0.24999955502797483
0.26249955182329304
-0.26249994660161463
-0.24999991674936814
-0.21250001043834862
-0.2375000076891778
-0.22500000542147425
-0.2374997113564909
-0.2624996419910046
-0.25246703644014873
-0.27499992231164266
-0.2625001603837271
-0.2375002664995269
-0.2524644131903901
-0.22500049642156603
-0.23750075939377308
-0.26250050810551123
-0.25000063319427945
-0.2750005029255564
-0.26250064702627957
-0.23750094037099947
-0.25000077991533404
-0.27500055328524403
-0.2625005752504979
-0.23750075888679165
-0.250000512411206
-0.22500062154103911
-0.23750037086912654
-0.26250033574392495
-0.2500002143624067
-0.2750002163844226
-0.2625001233740427
-0.23750007406378199
-0.2500000285567308
0.27499961755857194
0.26249961401827976
0.2374995520103966
-0.2750000691676824
-0.26250000357113246
-0.08750019788020753
0.2124990784922684
0.23983027404580262
0.22499902731732055
0.2499991644752577
0.2374988740224886
0.2624991534495231
0.2524662669155406
0.2749994249427833
0.26249957990592454
0.2874994642487496
-0.28750003582915945
0.28749966718969316
0.2874998077367371
0.2750000575830435
0.2524636716142347
0.262500568225668
0.23750043739907906
0.25000167032051274
0.22500161879135955
0.23750270796764064
0.2625017349890709
0.2500022348713776
0.22722557726149215
0.23750224187105365
0.2625017145885188
0.2500016192198368
0.27500134687962824
0.2625012740862179
0.2375013852681699
0.25000115399633743
0.22500119604648372
0.2375010473797155
0.2625009750875173
0.25000090285652016
0.22500096438541875
0.23750083436326894
0.26250077064933586
0.21250089033777037
-0.22500000984634105
-0.2500000085563549
0.2749996710062957
0.22500076615900066
0.2000008140680912
-0.2625000064066783
-0.2750000077704894
-0.2875000057785898
0.025000568144656843
-0.2749999895814408
-0.2499999493053337
0.3000001500651149
0.29999971557202904
-0.3000000073455632
-0.30000001502560586
0.2999996698296132
-0.2625000097310969
-0.31250000562190705
0.28749972397176443
-0.3125000517630854
0.21250069488995216
0.18750094411347937
-0.2624999517698247
-0.2374999099690699
0.31249976063178536
0.012499891591794344
0.18750073264979752
-0.32500000713694915
-0.3250000288710117
0.08749927059105478
0.29999977106002457
0.27499973730473065
0.3249998019402038
-0.18750025849984753
0.20000061980902925
0.22500058564442418
0.1750006471264238
-0.24999992428239848
-0.2249998848182944
-0.21249985745690486
0.33749979551493253
-0.3375000056533046
-0.33750005650543186
-0.1999998392703887
-0.1874997979395099
-0.3500000341211753
-0.3375000133753165
-0.35000000725828007
-0.337500008547758
-0.07499971268727884
-0.3250000037918563
-0.35000000448647417
-0.3375000021657628
0.3124998132194157
0.33749983916546294
0.21250051677160567
0.2375004858501225
-0.012500293975730367
-0.21249987184942026
0.21250073961736815
-0.20000001071471893
0.025000269552905924
-0.36250000346361716
-0.3500000009470581
-0.3625000086316753
-0.35000000959811184
-0.36250001838727486
-0.35000000316513663
-0.36250005396975954
-0.35000008204470395
0.19999930291811746
0.21249927035458424
-0.18749983322957664
0.32499985080879135
0.34999987242847913
-0.37500007086270704
-0.3625001024139228
-0.3750000073480628
-0.3624999965751867
-0.3750000029968176
-0.36250000045224
-0.3750000095793037
-0.3625000104932428
-0.33750001060909623
-0.35000001134497116
-0.3250000115499159
-0.3750000111533156
0.037500666302276095
0.050000782215296045
0.06250078046732
0.0750009149062225
0.087500889362535
0.22500042238007048
0.2500003947416834
0.26250044984605125
0.2750003630739406
0.287500409568731
0.30000032798896814
0.31250036575211987
0.3250002902017712
0.33750031917066303
0.3500002503928924
0.3625002707427992
0.3500003410083614
0.37500020915431626
0.3750002835678392
0.36250035486374205
0.07425008933555796
0.09999925699526978
0.08749952887827103
0.11249939788403313
0.09999954497117651
0.12499948236633497
0.11249959052100378
0.08749964104071763
0.09999967250221109
0.07499971191691253
0.12499964267954376
0.08749973731359319
0.062499768927658406
0.07499979073232872
0.04999981646263355
0.03749980309038307
0.024999843976812083
0.012499838354474432
-1.279169252921334e-07
-0.012500126261421657
-0.02500010045123482
-0.037500092144063794
-0.05150489789735771
-0.06275086699506346
-0.07717820260019566
-0.08790486656304203
-0.1010063987808504
0.09999976855938575
-0.2874999003291616
-0.3000000213178433
-0.31249998973084997
-0.3250000570703382
-0.33750002549779035
-0.3500000663366817
-0.3625000386744014
-0.37500006395037355
-0.3625000994381262
0.299999829212067
-0.03749983483925606
0.31249994397854847
0.32500016986978797
0.3375000109216488
0.34901915848161574
0.3373368369541313
0.36486506453340817
0.35036731665519066
0.36135553593331404
0.3750003308956391
0.3625616201423399
0.03750067664586817
0.05000061118629618
0.06250073135999146
0.20000044523880103
-0.3500000127608573
-0.37500002331209087
0.21460519406444584
-0.33749998944676257
-0.21460343812790542
-0.20196368137698184
-0.1875006273844148
-0.17500035744759218
-0.1625003154608273
-0.15000002436953763
-0.16249966349552863
-0.1374997883876501
-0.14999968292906976
0.06249955736104529
0.2875010932653274
-0.2749999347681623
-0.11273522519497026
-0.12520695531024942
0.0875000932899332
-0.17500050239570084
-0.15000027665449298
-0.16250039675700792
0.07500076940422257
0.10000088043653871
0.11250098421509268
0.08750075863016216
0.20000129627028157
-0.21250001098765764
-0.3750000055125264
0.3624998646297534
0.37500996914415985
-0.21250026170205455
-0.28750028834812513
0.11250010307020482
0.10000024448449343
0.34980916622584485
0.3746756037981074
0.3624140157007138
0.26249923090250504
0.0750006459978467
0.16250076310698794
0.11250088625917601
-0.1249999178874878
-0.03749954523675457
-0.049999605014739816
-0.1375002286831982
-0.15000030630608518
-0.12500018163390408
-0.13750023348946758
-0.1999998683399603
-0.22499989830416306
-0.08749968352434646
-0.1749998371152853
-0.3499999871071313
-0.3749999923792513
-0.3249999779986224
0.38672538277825946
-0.3875000829102414
-0.3750001153353292
0.3875116427194676
-0.387500003345556
-0.3875000828381317
-0.37500011930249233
-0.38750004682586103
-0.3625000118462004
-0.032704264203991744
0.08749981735265536
0.11249980262120618
0.36250158126440374
-0.11366671255834564
-0.13772896198417944
0.3124998666780851
0.2874998481944622
0.013299095254437173
0.3875119540880527
-0.3883879961974578
0.38751054434468857
0.3750123576714414
-0.38750000882586005
0.3873297329761402
0.3749571728046812
0.38750028824032345
0.3750003597215421
0.3625001898413361
0.3875001557344928
0.13749934250803392
0.14999945906974024
0.3125002547875963
0.2625003117486676
0.21250035599581935
0.18750037215689336
-0.10010669202727729
-0.025000115251679424
0.11249906586818345
-0.2750000039488045
-0.049999788488091834
-0.15007266628847576
-0.16255028579434622
-0.33749999701880184
0.35000043596281705
0.3625004407926501
0.3875003545241785
0.37500043367071184
0.12499966232586543
0.35000053294172817
0.3625005222671637
0.38750041310363115
-0.11250014321024536
-0.1250001811651035
-0.2124998976157214
-0.23749992026819394
-0.36249998612156864
-0.38749998995825
-0.4000000048575254
-0.39950722758339546
-0.3872707453387225
-0.3624619347805935
-0.37495556223151044
0.1000007450226
-0.34999999670922266
-0.12505699205096787
0.28750129878276137
0.024999796445510883
0.18750071137586963
0.37500049409984026
0.1750010159674542
-0.04999981813766387
-0.11249977304462966
-0.3999499087987784
-0.3874843492155974
-0.36249013510368755
-0.3750001785768865
0.40000037883521167
-0.3999999950123252
0.4000001671737419
0.39872732439876724
0.38728063389082906
0.36245613194197535
0.37495598322872503
0.3499997234575012
0.3624924505777972
0.38749129216177103
0.37499714324838124
0.3499980658743366
0.3624990407098482
0.3874992483804912
0.3749995754396277
0.39999970522001865
0.3874997610075794
0.41077426199996175
0.4000014613400193
-0.3751480097742442
-0.3500246787888334
0.3750022138131442
-0.40209093448998756
0.40000402557680254
-0.39999749874512414
0.4005906606872403
-0.4025454971972802
0.413358109000771
-0.4000000888497871
-0.3989925292632893
-0.34999855822401266
0.16249934304527985
0.17499947383148698
0.3750001374165611
0.40000010996250124
0.14999916597900684
0.02499982218887598
-1.6302711407080064e-07
0.0124997755057898
-0.01250020135755647
-0.02500015571237816
-0.0375001866975679
-0.050000154789449275
-0.06250017927079358
-0.07500015855715086
-0.0875001771588412
-0.10000016440494966
-0.11250017716684746
-0.12500016830914992
-0.13750024256796084
-0.06250012902187038
-0.3125001250353706
0.06250053742733962
0.08750055905432665
0.07500046035466443
0.1000004733974081
0.08750038224976238
-0.17502050354940882
-0.1875118107030224
-0.20000539602878692
-0.2125028788618567
0.0625009285243815
0.087501101995483
-0.19999982062870048
-0.17499974223693796
-0.16249973736147685
-0.1499996685941457
0.30000045046187634
-0.18749976596114198
-0.22500051556550038
-0.23750057575393185
-0.2500001904824216
-0.07499961366691384
-0.2625001369371023
0.11250038945705028
0.3374993063746669
0.3249993176143466
-0.05000020497280272
0.08750076956886964
-0.10000011844053916
-0.09999974675401738
-0.37499998578990773
-0.3499999808239427
-0.39999998858269864
0.41232062596812724
0.4132681899553723
-0.25000012927729576
-0.2750000538185838
-0.1991823268274295
-0.14815745743646844
0.0999998469255971
0.12499983774581248
0.1374997928770273
0.14999983251541638
0.1624997891965626
0.17499955792552685
0.187499745627827
0.19999966833579289
0.21249976312006819
0.19999973652395125
0.22499980831259606
0.07499985937510775
0.2999998861745728
0.4124998289688241
0.3999998318377721
0.3749997938548728
0.3874998319536697
0.4124998701350728
0.41250031132178067
-0.4125000628675042
-0.4125000054038085
-0.4000000049190455
-0.4250000061359538
0.22499975490629226
0.2124997083781294
-0.3374983104281627
-0.11250015040481029
-0.1375001935408128
0.2000002873486197
0.17500029801187206
-0.11252727369786751
-0.08752233113479929
-0.16250033872007616
0.037500397510905885
0.07573872249606556
0.10000124047040217
-0.3249999908648474
-0.312499994147486
-0.33749999083212784
-0.13751404472816514
-0.27499995554643114
0.3500127949660006
-0.3125000109226728
0.35000062131479304
0.33749242072937014
0.32503446861120666
0.18749969225528637
0.05000035242777383
-0.17499952957954001
-0.30000019806104383
-0.31250023997947074
0.10000030427644173
0.12500047785081897
0.1250008972850382
0.13750104106134678
0.11250071480269484
0.2000002755550875
0.17500032674363242
0.3875030304635059
0.4125013629751903
-0.3874997107212303
-0.41249959648392603
-0.42499956947077905
-2.5364023869449973e-07
-0.0999998424766297
-0.10000018944331972
-0.1250001874694501
-0.2249999222986959
-0.19999990374151885
-0.249999938881999
-0.2624999401782671
-0.2749999530296153
0.39999986339131993
-0.11250009873088902
-0.08749973636111225
-0.09999968496662856
-0.08750006653177302
-0.09999966089089204
-0.08749959079513216
0.42500027364273674
-0.4250000067632037
-0.4125000077945354
0.42500064521950126
-0.3625287901047385
-0.3373884334467415
0.0874998860786342
0.06191996782226457
0.21249956832919362
0.23749982650643883
0.38817871507628876
0.4140695995178629
0.3626134486639237
-0.2625000408281409
0.1377058608269066
-0.4250000636140402
0.4249998974973233
0.3875000920963163
0.4125000715303609
0.42500008208474394
0.4375000505121552
-0.32499970521549704
0.3625001119335731
0.18749940182693453
0.19999951530087368
0.17499924026944294
-0.337500258452731
-0.08750010753064313
-0.09999996562150396
0.11249914951223527
-0.41250000617602134
0.15000066564162987
-0.08749977568892761
-0.11249980272339487
-0.09999983239514322
-0.12499985128014178
-0.21250060355336606
-0.23750000028213272
-0.16249979532517428
0.2749998040995034
0.0624997008838433
0.06249966147288426
-0.28749993973937377
0.07500029664915346
0.21250131517512563
0.2000011824122364
0.18750113515721867
0.17500121294297735
-0.15001184921612262
0.3249984265036052
-0.07500369867084794
0.1500011106610905
0.06250064633370868
-0.4008079734930611
-0.41262788085073654
-0.4262677382205873
-0.4000213201590889
-0.42501808383005363
-0.3624999994120953
-0.2875003734528018
-0.387500018529296
-0.18750060781500738
-0.4000000077791821
-0.4125000152981306
-0.4250000057586353
0.05000080778960364
-0.18750432607699302
-0.1624994824598951
-0.1374995511671504
0.112501078704641
0.12500128136299596
0.11250107080359628
0.05000016178501044
0.31249961361322764
-0.29999998617468904
-0.2874999946922305
-0.2999999982811006
0.2250002732121857
0.21250020799928188
0.2375001964452389
-0.23693172761910117
-0.1874997458992064
-0.3000003283294773
0.050000439972634765
0.14999974350012454
0.16249942172519752
-0.23750012576085175
-0.32498552732983516
-0.3122718116706839
0.062499697108636044
0.31249817025151894
0.2999994242172886
0.4000002255937512
0.4125002218025842
0.42500016753884695
-0.21250001358012452
-0.2000000930465288
-0.18750012231713012
0.12499993618303915
0.16249955340273667
0.33745368748671584
0.18749997715601774
0.1250002846183145
0.36250058057673745
0.3375007321149355
0.3250007601736582
0.1250003070485557
0.11250022660001681
-0.3874999864645861
0.13750022652433208
-0.26250006049533786
0.3249996163500733
0.17500046269592623
0.20000216342303873
0.16250124439334993
-0.17500014415117354
-0.16250016043465382
-0.17500018255572755
0.36249979500369517
0.34999976057941445
0.13750078280666408
0.1625011471901867
0.29999953377740757
0.13750105150315575
0.3750018190554692
0.15000114714705193
0.41249989026716455
-0.11250019830115301
-0.137500196508424
-0.062499913342444126
-0.07499977366452258
-0.0624996837236962
-0.03749994029484337
-0.08749988136765194
-0.1500001873228949
-0.08750020171454236
-0.2124999348954106
-0.1874999191481798
-0.1749998855481029
-0.16249990185506197
-0.26249995904520895
-0.28749996936000893
-0.29999996545105856
-0.3124999774707973
-0.4124999876328798
-0.4249999897711899
0.43751196784446056
-0.4374999886723146
0.4370537691090317
0.42492555496533063
0.37571193837624356
0.07432333803034558
-0.43795436536711124
0.43749990879391804
0.43686626588563326
0.4248945893742632
0.45351410059350433
-0.43686609162510903
-0.42489438308576843
-0.43690925252756935
0.4369094006441618
-0.4369953955709307
-0.4249159093525854
-0.3999859932427651
-0.41248366380618134
-0.43748327281471866
-0.42499450763962643
0.27499987352374566