# vtk DataFile Version 3.0
Broken Mesh Solution
ASCII
DATASET UNSTRUCTURED_GRID

POINTS 648 float
-0.5 -0.5 0.0
0.5 -0.5 0.0
0.5 0.5 0.0
-0.5 0.5 0.0
-0.4500000000001387 -0.5 0.0
-0.4000000000002774 -0.5 0.0
-0.3500000000004161 -0.5 0.0
-0.3000000000005548 -0.5 0.0
-0.2500000000006935 -0.5 0.0
-0.2000000000008322 -0.5 0.0
-0.1500000000009709 -0.5 0.0
-0.1000000000011096 -0.5 0.0
-0.05000000000124821 -0.5 0.0
-1.376121439022882e-12 -0.5 0.0
0.04999999999875171 -0.5 0.0
0.09999999999889042 -0.5 0.0
0.1499999999990291 -0.5 0.0
0.1999999999991677 -0.5 0.0
0.2499999999993064 -0.5 0.0
0.2999999999994452 -0.5 0.0
0.349999999999584 -0.5 0.0
0.3999999999997227 -0.5 0.0
0.4499999999998613 -0.5 0.0
0.5 -0.4500000000001387 0.0
0.5 -0.4000000000002774 0.0
0.5 -0.3500000000004161 0.0
0.5 -0.3000000000005548 0.0
0.5 -0.2500000000006935 0.0
0.5 -0.2000000000008322 0.0
0.5 -0.1500000000009709 0.0
0.5 -0.1000000000011096 0.0
0.5 -0.05000000000124821 0.0
0.5 -1.376121439022882e-12 0.0
0.5 0.04999999999875171 0.0
0.5 0.09999999999889042 0.0
0.5 0.1499999999990291 0.0
0.5 0.1999999999991677 0.0
0.5 0.2499999999993064 0.0
0.5 0.2999999999994452 0.0
0.5 0.349999999999584 0.0
0.5 0.3999999999997227 0.0
0.5 0.4499999999998613 0.0
0.4500000000001387 0.5 0.0
0.4000000000002774 0.5 0.0
0.3500000000004161 0.5 0.0
0.3000000000005548 0.5 0.0
0.2500000000006935 0.5 0.0
0.2000000000008322 0.5 0.0
0.1500000000009709 0.5 0.0
0.1000000000011096 0.5 0.0
0.05000000000124821 0.5 0.0
1.376121439022882e-12 0.5 0.0
-0.04999999999875171 0.5 0.0
-0.09999999999889042 0.5 0.0
-0.1499999999990291 0.5 0.0
-0.1999999999991677 0.5 0.0
-0.2499999999993064 0.5 0.0
-0.2999999999994452 0.5 0.0
-0.349999999999584 0.5 0.0
-0.3999999999997227 0.5 0.0
-0.4499999999998613 0.5 0.0
-0.5 0.4500000000001387 0.0
-0.5 0.4000000000002774 0.0
-0.5 0.3500000000004161 0.0
-0.5 0.3000000000005548 0.0
-0.5 0.2500000000006935 0.0
-0.5 0.2000000000008322 0.0
-0.5 0.1500000000009709 0.0
-0.5 0.1000000000011096 0.0
-0.5 0.05000000000124821 0.0
-0.5 1.376121439022882e-12 0.0
-0.5 -0.04999999999875171 0.0
-0.5 -0.09999999999889042 0.0
-0.5 -0.1499999999990291 0.0
-0.5 -0.1999999999991677 0.0
-0.5 -0.2499999999993064 0.0
-0.5 -0.2999999999994452 0.0
-0.5 -0.349999999999584 0.0
-0.5 -0.3999999999997227 0.0
-0.5 -0.4499999999998613 0.0
0.4566987309199836 0.02500000005140989 0.0
-0.02281172168516951 0.4495334318524943 0.0
-0.458089859557602 -0.02299782465843925 0.0
0.02253286248246634 -0.4581231326562758 0.0
-0.174503680561526 -0.4534787949349919 0.0
0.1749999997605313 0.4566987300284767 0.0
-0.4550994794131522 0.172835509639693 0.0
0.4566987331042523 -0.1749999980004294 0.0
-0.1827059884477657 0.4524591026139226 0.0
0.4566987298471196 0.1750000014232302 0.0
-0.4566987298106581 -0.1749999999990983 0.0
0.1761391042497693 -0.4603040304105419 0.0
0.4566987300282364 0.3249999997591442 0.0
-0.3279237757611223 0.4601698447743342 0.0
-0.4566987298106578 -0.3249999999995147 0.0
0.3256550945045906 -0.4555434892684868 0.0
-0.4566987298108982 0.3250000000004855 0.0
0.3255139622609851 0.4555600266918058 0.0
-0.3279237679332165 -0.460169856848806 0.0
0.4566987388820809 -0.3249999979586331 0.0
0.4566987318359435 -0.07500000006411489 0.0
-0.07500000018145664 -0.456698729547736 0.0
0.07609504156368099 0.460428603778737 0.0
-0.4569339034294686 0.07499999996977591 0.0
0.4578151845509931 0.4230662430481319 0.0
-0.4250814320407744 0.4575917992648114 0.0
-0.4585503649557551 -0.4280278694577894 0.0
0.4204087265223604 -0.4547151351736423 0.0
0.456884805703924 0.3746777069226117 0.0
0.4134284724869516 0.3499462837730077 0.0
0.4134026290781021 0.2999910469402023 0.0
0.3701022201067178 0.3249895540149141 0.0
0.3700980571337412 0.2749967659375679 0.0
0.3267962362533561 0.299997718294437 0.0
0.32679545165055 0.2499990792271375 0.0
0.2834939581710985 0.2749994637488965 0.0
0.283493791419725 0.2249997550782698 0.0
0.2401924555276733 0.2499998666362281 0.0
0.2401924181857768 0.1999999342038112 0.0
0.1968911299888453 0.2249999627146971 0.0
0.196891122347809 0.1749999790721609 0.0
0.1570045567868039 0.2044465154917224 0.0
0.1535898462940805 0.1499999893465576 0.0
0.1102885742900422 0.1749999897819449 0.0
0.1102885754378573 0.1249999908875029 0.0
0.06698730416015763 0.1499999898211472 0.0
0.06698730600788136 0.09999999014877037 0.0
0.0236860349771485 0.1249999889481777 0.0
0.02368603695554816 0.07499998899657045 0.0
0.06698730809379617 0.04999999054428762 0.0
0.02368603917250045 0.02499998910885348 0.0
0.06698731025069403 -9.319207364133497e-09 0.0
0.02368604105456315 -0.02500001083960424 0.0
-0.01961523241389829 0.04999998800544936 0.0
0.06698731240628221 -0.05000000931686709 0.0
0.02368604306625954 -0.07500001050190896 0.0
0.06698731453830899 -0.1000000090656905 0.0
0.02368604555228807 -0.125000010989375 0.0
-0.01961522603671177 -0.1000000123221776 0.0
0.1102885810312898 -0.02500000731794831 0.0
0.06698731672846744 -0.1500000092390525 0.0
-0.01961522356948672 -0.150000013084764 0.0
-0.06291649508035457 -0.1250000146812991 0.0
-0.06291649260589147 -0.1750000150021927 0.0
-0.1062177641170514 -0.1500000167223287 0.0
0.02368603331807514 0.1749999886296555 0.0
0.2401923906938529 0.1499999839094892 0.0
-0.1062177618694818 -0.2000000170473907 0.0
-0.1495190329665907 -0.1750000192010941 0.0
-0.149519035947805 -0.1250000193664963 0.0
-0.1928203048327586 -0.1500000219963532 0.0
-0.1928203079944329 -0.1000000217423036 0.0
-0.1928203020134946 -0.2000000218898307 0.0
-0.06291649072360528 -0.2250000153725988 0.0
-0.2361215766256571 -0.1250000243908878 0.0
-0.2307782370124918 -0.07330280181533079 0.0
0.1535898445883362 0.2499999862769237 0.0
-0.01961523589131761 0.1499999876079523 0.0
-0.01961523763234496 0.1999999872564897 0.0
-0.06291650692659242 0.1749999860294769 0.0
-0.06291650883286673 0.2249999857102984 0.0
-0.106217778068876 0.1999999842190057 0.0
-0.020053776134036656 0.25558922308270715 0.0
-0.1062177797420636 0.2499999840860425 0.0
-0.1495190493158982 0.2249999823453323 0.0
-0.1495190474060577 0.1749999826125699 0.0
-0.1928203186863737 0.1999999808247287 0.0
-0.1928203167542025 0.149999981329808 0.0
-0.192820320302434 0.2499999808204752 0.0
-0.2361215894991991 0.2249999793472016 0.0
-0.1928203110378556 -0.05000002146558535 0.0
-0.2361215827204462 -0.02500002413496238 0.0
0.1102885856493816 -0.1250000074447876 0.0
0.1102885883138683 -0.1750000072323346 0.0
0.1535898570300779 -0.1500000050338198 0.0
0.15700456960394413 -0.20444653515617814 0.0
0.1968911286335259 -0.1750000023939993 0.0
0.1968911319558061 -0.2250000022961225 0.0
0.11275619381076965 -0.23003417197724849 0.0
0.1968911255377074 -0.1250000023006401 0.0
-0.1062177598215724 -0.2500000169726487 0.0
0.2401923972891293 -0.1499999995158983 0.0
0.2401923940741026 -0.09999999952497761 0.0
-0.2361215915518088 0.2749999788919164 0.0
-0.2794228484746316 -0.1000000265418179 0.0
-0.2794228457842816 -0.1500000265442128 0.0
-0.2794228608944936 0.2499999774356469 0.0
-0.2794228614357377 0.1999999756044907 0.0
-0.06291648879009101 -0.2750000153719601 0.0
0.2834936659746705 -0.1249999965741579 0.0
0.2834936691222645 -0.1749999966095462 0.0
0.2834936627596197 -0.07499999672349894 0.0
-0.1062177580131928 -0.3000000170448722 0.0
0.2401924432470267 0.2999998851271908 0.0
-0.2794228628047704 0.2999999771370188 0.0
-0.1928203219617424 0.2999999808218773 0.0
-0.06291649782264816 -0.0750000143361198 0.0
-0.1928203135464154 -2.064294921111376e-08 0.0
-0.2361215843790042 0.02499997716948299 0.0
-0.2794228548240909 -2.718963876269243e-08 0.0
-0.2794228578626055 0.04999997255445776 0.0
-0.1495190457442555 0.1249999832545121 0.0
0.1535898456653862 0.09999999250001644 0.0
0.2347036391126569 -0.04885742568132833 0.0
0.2834936594771013 -0.02499999697754573 0.0
0.3267950332536671 0.1999998059744248 0.0
-0.3227241322458269 0.2749999756906619 0.0
-0.3227241174791712 -0.1250000289868489 0.0
-0.3227241147097923 -0.1750000289827043 0.0
-0.3224889530456149 0.02499997004843824 0.0
-0.3224497597501842 0.0749999700275564 0.0
-0.06334754574216316 -0.324253399412453 0.0
-0.01968706075854848 -0.2998755778435394 0.0
-0.3227241338401081 0.3249999760701951 0.0
-0.2794228640762735 0.3499999784674362 0.0
0.2401923879104263 6.281362929794199e-11 0.0
0.283493656180216 0.02500000279763914 0.0
0.3267949297915752 -0.04999999643723113 0.0
0.3267949375351529 -0.1499999936378744 0.0
0.3267949410247059 -0.1999999936775116 0.0
-0.1067206581323474 -0.3491289648630592 0.0
-0.1496028440043389 -0.3248548437724674 0.0
-0.02080856110558978 -0.3464621213856544 0.0
0.02369418342370525 -0.324010313603925 0.0
0.3267961437177673 0.3499978771310411 0.0
-0.2793771304744661 0.09999997407787933 0.0
-0.3225878094307909 0.1249999698264475 0.0
-0.1495190421784021 -0.02500001850872768 0.0
-0.279422843212459 -0.2000000266540853 0.0
-0.3227241120740536 -0.2250000289509058 0.0
-0.2794228408753044 -0.2500000263448555 0.0
-0.3227241095250169 -0.2750000289130126 0.0
-0.2794228380372047 -0.3000000263664424 0.0
-0.322724106608287 -0.3250000288456228 0.0
-0.2794228352101779 -0.3500000262264711 0.0
-0.3660253810344992 -0.2500000309762747 0.0
0.0236754330618689 -0.2748143234350371 0.0
0.0669873223571371 -0.3000000115827139 0.0
0.06720767373478534 -0.3494557510486884 0.0
0.1103253188322978 -0.3249092993631095 0.0
0.2834936727185337 -0.2249999967146899 0.0
0.3267949447073594 -0.2499999935971476 0.0
0.2834936762610001 -0.2749999968514261 0.0
0.3267949484867373 -0.2999999936019029 0.0
0.2834936799693125 -0.3249999967736686 0.0
0.3267949520645502 -0.3499999935693554 0.0
0.2834936836509125 -0.375334489431183 0.0
0.2401924115778944 -0.3500557487577104 0.0
-0.149519044447362 0.02499998235479209 0.0
-0.1062177733286516 -1.582190822801977e-08 0.0
-0.06291650506204238 0.1249999863364309 0.0
-0.236121569475361 -0.2750000241007409 0.0
-0.3224497543305078 -0.02500002941887192 0.0
0.23470363297143715 0.048857425425839096 0.0
0.1968911170237609 0.02499999667215667 0.0
0.2834936536521049 0.07500000208988378 0.0
0.3267949245945585 0.0500000053386096 0.0
[...]
POINT_DATA 648
SCALARS U float
LOOKUP_TABLE default
-0.5
-0.5
0.5
0.5
-0.5
-0.5
-0.5
-0.5
-0.5
-0.5
-0.5
-0.5
-0.5
-0.5
-0.5
-0.5
-0.5
-0.5
-0.5
-0.5
-0.5
-0.5
-0.5
-0.4500000000001387
-0.4000000000002774
-0.3500000000004161
-0.3000000000005548
-0.2500000000006935
-0.2000000000008322
-0.1500000000009709
-0.1000000000011096
-0.05000000000124821
-1.376121439022882e-12
0.04999999999875171
0.09999999999889042
0.1499999999990291
0.1999999999991677
0.2499999999993064
0.2999999999994452
0.349999999999584
0.3999999999997227
0.4499999999998613
0.4999999999978192
0.5
0.5
0.5
0.5
0.5
0.5
0.5
0.5
0.5
0.5
0.5
0.5
0.5
0.5
0.5
0.5
0.5
0.5
0.4500000000001387
0.4000000000002774
0.3500000000004161
0.3000000000005548
0.2500000000006935
0.2000000000008322
0.1500000000009709
0.1000000000011096
0.05000000000124821
1.376121439022882e-12
-0.04999999999875171
-0.09999999999889042
-0.1499999999990291
-0.1999999999991677
-0.2499999999993064
-0.2999999999994452
-0.349999999999584
-0.3999999999997227
-0.4499999999998613
0.02499989014105901
0.4495330948885045
-0.022997988030670324
-0.4581233767968723
-0.45347892128759854
0.4566985968080596
0.17283526894315426
-0.17500015952169098
0.45245877609239793
0.17499991979996474
-0.17500012070745544
-0.46030429071908
0.32499995027756506
0.46016969026426136
-0.32500006858419755
-0.45554364519745666
0.32499984046822594
0.4555599684892873
-0.4601699174604779
-0.32500012544164425
-0.07500013869205473
-0.4566988991858857
0.4604284110319566
0.07499978904731336
0.4230662206990235
0.4575917282928665
-0.42802789583548523
-0.4547152024745028
0.374677670502407
0.3499461967038215
0.2999909349909691
0.3249894021199796
0.27499657862361815
0.29999748781803914
0.24999880421855034
0.2749991439189301
0.22499938190984994
0.24999945992838418
0.19999946079506764
0.22499953203703246
0.1749994724062885
0.204446326901828
0.14999921950549736
0.17499903475377523
0.12499890769907666
0.14999866109460755
0.09999866279675737
0.12499843638230704
0.07499849009884386
0.049998645905654636
0.02499851678849659
-1.403509395920069e-06
-0.02500150119231056
0.04999839807693654
-0.05000151568561296
-0.07500157477293894
-0.10000172485388309
-0.12500170147233292
-0.10000150590422416
-0.02500133980200625
-0.15000207396216825
-0.15000149520983602
-0.1250013492824702
-0.17500117396454393
-0.1500012159002677
0.17499837975295437
0.14999930543250786
-0.20000088098660113
-0.1750014050646082
-0.12500119826877457
-0.15000107327794313
-0.10000100938176891
-0.2000012955716973
-0.22500069657734217
-0.1250009202052303
-0.07330335687317482
0.24999936812781365
0.14999814264668707
0.19999801240871354
0.1749977510126505
0.22499784372330892
0.19999692969700278
0.2555870872213595
0.24999721371621297
0.2249973906767936
0.17499717923213134
0.19999747788621683
0.14999708687481247
0.249998006529832
0.22499819271482632
-0.050001014512325685
-0.025000880462277008
-0.1250019352018022
-0.17500272521371266
-0.15000201571325594
-0.2044498905463574
-0.17500177105125714
-0.22500204277304114
-0.23003746216877718
-0.125001274710535
-0.2500007927754443
-0.15000118293043824
-0.10000090219857126
0.2749985359200983
-0.10000067647991687
-0.1500007243085944
0.24999870791860018
0.19999851865341625
-0.2750003914951964
-0.1250008368854035
-0.1750009759235395
-0.07500067800311125
-0.3000005533758065
0.29999951851822876
0.2999989514163525
0.2999984750352976
-0.0750014152966325
-1.2165319395166433e-06
0.024998917725990794
-8.352815516065671e-07
0.04999892889418778
0.12499765819339653
0.0999990304121147
-0.04885817687879158
-0.02500057048197409
0.199999486674466
0.27499909482307566
-0.12500057248769958
-0.17500054666286613
0.02499920433300779
0.07499904763669887
-0.3242539706770728
-0.29987645945404995
0.3249992765450748
0.3499992129923166
-5.402193512683589e-07
0.02499954328258222
-0.0500005089090685
-0.15000068580980716
-0.20000073620243153
-0.3491294215740509
-0.3248553100791164
-0.346462843488171
-0.3240114188090029
0.34999769532550334
0.0999986584614685
0.12499891688238308
-0.02500129953281282
-0.2000006778277641
-0.2250004860731184
-0.2500005614209929
-0.2750004015783741
-0.3000004332026787
-0.32500031240435007
-0.3500003207499474
-0.25000033807334726
-0.2748157245278973
-0.30000173038739586
-0.349456872996945
-0.3249107878736073
-0.22500102093662172
-0.2500007187720619
-0.2750009385781153
-0.30000063219670436
-0.3250007655172403
-0.35000049736480193
-0.3753350449021893
-0.35005658947598334
0.024998486638362013
-1.4941615537614187e-06
0.12499799445698992
-0.27500057584005544
-0.02500066990349944
0.04885689536617363
0.024999195159756824
0.07499954637850122
0.049999616433103036
0.09999963340363519
0.07499971526493773
-0.27500047833016483
0.12499973414783616
0.024999683809587444
-0.3748951303990633
0.04999933383073712
0.299999394983776
0.3499995295281592
0.24999928637660881
-0.15000042961619633
-0.10000046081907193
-0.39954335181991285
-0.37403646616103114
-0.3248497844165459
0.09999796919239812
0.04999829176852947
0.24999783404182266
0.09999981495336632
-0.17500050685679355
-0.12500046874361703
-0.373479202338933
-0.34972267499825177
-0.37350446327171505
-0.3497509201431925
-0.39807460464407096
-0.39479131645196397
0.27499955655571867
-0.3725017081445832
-0.12500031505654166
-0.400120142599177
-0.42217156834444736
-0.07773300382941203
0.2274020751784288
0.20240181485258535
-0.4014267398724748
-0.4060696513850691
-0.40131449086149146
-0.3752193224918863
-0.4255498720117109
-0.40050547734327535
-0.4248396296311263
-0.4530513842955621
-0.3960190037068633
0.12499799162622499
0.14999847808158182
-0.3491188162411689
-0.2998142988663579
0.07330130855377233
-0.050001362669459835
-0.02500148283566332
-0.24997198477946944
-0.22496569642848285
-0.1749958159788989
0.225399383268128
0.2749979388853095
0.2999985004349994
0.3249985556957436
0.2749988909799707
0.3249989681127004
0.2999989910227444
0.3499992403843784
0.3249992761890739
0.37381795188838923
0.3498025823690062
0.3734899076252751
0.24999850511068106
0.40707357665686356
0.3749996642534157
0.02499840179546052
-0.2500013631283245
0.2999981641693115
0.34999875996851926
0.373731121650139
0.40702715744984663
0.37499902639116445
0.32499855011184103
0.3499989080072823
0.39952130669859315
0.3749195526436762
0.4249065750292976
0.39959139079428
0.37343568616723355
0.39402851431117175
0.3738853045806099
-0.2999587289762518
-0.27500021788085155
-0.22500025504937196
-0.07500109983777731
0.37498883900686686
0.4012542261826899
0.3752123152441077
0.4249999288670595
0.42496771536739814
0.40026722667233006
0.4519910955509731
-0.2999851824041295
-0.27500165347604233
-0.07500119572271675
0.3996131372967897
0.4539404380204031
-0.10000128966632152
-0.32503690603617874
-0.19999438547197235
-0.25557499066200573
-0.17500095301803673
-0.4569363385404455
-0.4181383677718213
0.025333507323014055
0.007660216064504704
-0.12500015262817352
0.3250343091343544
0.45952798575733383
-0.050001501206288046
-0.07500154839586912
-0.2749763919750347
0.02499877335756214
-0.4133978275523078
-0.454749004576664
0.27499950097784287
-0.20000139281876658
-0.19999034487309497
0.1499975825081794
0.09999798345622538
0.07499822520899349
-0.025000123302589713
-0.05000026104005766
0.45510843871211404
0.07499990210785501
0.46124541970217114
-0.45557759076325277
0.1246390223742885
0.09999954958682392
-0.4630729534669499
-0.2750001496761808
-0.4495808340993682
-0.05262042692517718
0.27499796673277777
0.34953606038924084
0.3966042759920547
0.45669841249023907
0.3249856058933875
0.12499900383698098
-0.24997121439825784
-0.22500015883203328
-0.20000039111769194
0.45701851943375105
0.4523620760400988
-0.22500051393687764
-0.050000706134499556
0.22499848150104093
0.3499996942702109
0.14919194187053744
-0.025000918001362796
0.2300330710534982
-0.22500079504034423
-0.24999667437270887
0.2249987171902367
-0.10000152116681899
0.19999854400076397
0.1749994685940179
0.1749979050082313
-0.32495413999992195
-0.2999176281404688
0.07499883562593043
-4.329424368440312e-07
0.2749981078550818
0.09999828137853033
-0.1000005991757865
0.32496672414578953
0.393737339991084
0.22499976017168094
-0.07543725231892223
0.2749990652293423
-0.22499575331744898
0.2999610861865102
-2.296708609051632e-07
-0.05000125314655817
0.0499984907774219
0.19999930316882303
0.1754660489047289
-0.3750003042415368
-1.0914487819844904e-06
-1.5280883837107e-06
-0.2749455795160595
0.07499814662364628
0.04999899350142057
0.07499921807459495
0.09999948042129442
0.12499951359125201
0.12499991250239806
0.1499995985246086
0.17499944535685996
0.04999979613660513
0.1499997295361678
-0.025000361362268134
-0.07500041652044982
-0.10000029492709941
-0.1500003172416201
-0.200000329777399
-0.2500003210348396
-0.3000063665478761
-0.350128048979192
-0.37469696743736625
-0.45241244448713325
-0.37709986158094083
-0.32444232899060516
-0.27500008486280725
-0.22500009943101903
-0.17500030234561406
-0.12500013012399663
-0.07500014489996089
-0.003922733316907702
0.05159847977590866
0.22674988887389283
0.09999923229222342
0.27512737843357526
0.1495929501626057
0.32494160419663326
0.37429017128832465
-0.4186987271497054
-0.377976775027014
-0.42323065497554674
0.4204554887302212
-0.37043167930671483
-0.41969360116922333
0.41860063525990554
0.41927373233242354
-0.4622603892642553
0.4231337387189958
0.4205564467498187
-0.46522407726624676
0.41668400226400026
-0.4168605964123255
0.465841847811634
-0.4172361276368648
-0.46716174320762377
0.46650631911721446
0.4160250426322195
-0.4160255575672834
0.415943510298949
0.46650375571230346
-0.46705662016480737
0.4633974302554304
-0.46339748458061764
0.4633974504735157
-0.46376275563593977
-0.03784366650638
0.18773857284557569
-0.4212866773035064
-0.3863998113122597
-0.43440579245481753
0.4312513394377355
-0.43055169509855445
0.4306383238032675
0.06870082870437577
0.031836362350255595
0.07715968767170268
0.09150453125528901
-0.2260779902777422
-0.24086157258102484
-0.24364368696221989
-0.24919930159287804
-0.24972725960134773
0.15287690863713052
0.14288050968334037
-0.15288053435653942
-0.14288635242787998
-0.24813515836327724
-0.24195417367851693
-0.11641112907917199
-0.22328386807601536
-0.09486771678696385
-0.10869448981324527
0.24195136803346498
0.23610999490807508
0.15912076736217373
-0.15912474942850738
-0.09148991628911052
0.017333635288773155
-0.017335601443757072
-0.05390357139504932
-0.07728487613163475
-0.20002031514350926
-0.19502817473799605
-0.13339871608107037
0.22607426841342115
0.22327954180131795
-0.16814240801715888
0.2000166878315589
0.19502471514072356
-0.07715517898757575
0.1540573198729295
0.1333964701644608
-0.24887766384230356
0.1854600463493569
0.20035706534355377
-0.23611325037782996
-0.22631434501352257
0.2481300151652124
0.11641027954356112
-0.1854642105009941
0.16813989367881024
0.24919630450297162
0.24085675059513878
0.21363571944517978
0.05390222998122875
0.04321774261564444
0.22631050129513766
-0.15405965331336763
0.24972534791008716
-0.0318450974711602
-0.06870184491252594
-0.04321905384657023
0.005625313411108687
0.24887404231313137
-0.2003597513971882
-0.21363752950068152
0.07728348503171831
0.094866132957333
0.10869270465127324
-0.005626464306853971
0.24364838066169872
0.06870082876798969
0.03183636230635053
0.07715968761816938
0.09150453134172801
-0.2260779902990808
-0.24086157256697352
-0.243643686992819
-0.24919930154846498
-0.24972725966106019
0.15287690857440958
0.1428805097858624
-0.1528805342938362
-0.14288635253036705
-0.24813515842608305
-0.24195417366648445
-0.11641112904251784
-0.22328386807322212
-0.09486771676621689
-0.10869448984201814
0.241951368021443
0.23610999491794774
0.15912076742944617
-0.15912474949575497
-0.09148991637559314
0.017333635336775836
-0.017335601491759403
-0.053903571379074394
-0.07728487617116706
-0.20002031514699126
-0.19502817474836007
-0.13339871607177498
0.22607426843472328
0.22327954179854698
-0.16814240801143177
0.20001668783502827
0.19502471515109202
-0.07715517893400506
0.15405731988932664
0.13339647015516215
-0.24887766382893936
0.18546004632920435
0.20035706536236886
-0.23611325038772074
-0.22631434501546308
0.2481300152278805
0.11641027950689185
-0.18546421048085307
0.16813989367307758
0.2491963044586767
0.24085675058115563
0.21363571943895615
0.053902229965252464
0.043217742633469926
0.2263105012970926
-0.15405965332976024
0.2497253479697124
-0.03184509742722896
-0.0687018449762309
-0.04321905386439495
0.005625313392792803
0.2488740422998297
-0.20035975141598608
-0.21363752949447315
0.07728348507125352
0.09486613293658236
0.10869270468005392
-0.005626464288538615
0.24364838069219186
